 Entering Gaussian System, Link 0=g03
 Input=PHE_batch_26.com
 Output=PHE_batch_26.log
 Initial command:
 /home/yoelvis/bin/g03/l1.exe /scratch/yoelvis/33721104/scr/Gau-4355.inp -scrdir=/scratch/yoelvis/33721104/scr/
 Entering Link 1 = /home/yoelvis/bin/g03/l1.exe PID=      4356.
  
 Copyright (c) 1988,1990,1992,1993,1995,1998,2003,2004, Gaussian, Inc.
                  All Rights Reserved.
  
 This is the Gaussian(R) 03 program.  It is based on the
 the Gaussian(R) 98 system (copyright 1998, Gaussian, Inc.),
 the Gaussian(R) 94 system (copyright 1995, Gaussian, Inc.),
 the Gaussian 92(TM) system (copyright 1992, Gaussian, Inc.),
 the Gaussian 90(TM) system (copyright 1990, Gaussian, Inc.),
 the Gaussian 88(TM) system (copyright 1988, Gaussian, Inc.),
 the Gaussian 86(TM) system (copyright 1986, Carnegie Mellon
 University), and the Gaussian 82(TM) system (copyright 1983,
 Carnegie Mellon University). Gaussian is a federally registered
 trademark of Gaussian, Inc.
  
 This software contains proprietary and confidential information,
 including trade secrets, belonging to Gaussian, Inc.
  
 This software is provided under written license and may be
 used, copied, transmitted, or stored only in accord with that
 written license.
  
 The following legend is applicable only to US Government
 contracts under FAR:
  
                    RESTRICTED RIGHTS LEGEND
  
 Use, reproduction and disclosure by the US Government is
 subject to restrictions as set forth in subparagraphs (a)
 and (c) of the Commercial Computer Software - Restricted
 Rights clause in FAR 52.227-19.
  
 Gaussian, Inc.
 340 Quinnipiac St., Bldg. 40, Wallingford CT 06492
  
  
 ---------------------------------------------------------------
 Warning -- This program may not be used in any manner that
 competes with the business of Gaussian, Inc. or will provide
 assistance to any competitor of Gaussian, Inc.  The licensee
 of this program is prohibited from giving any competitor of
 Gaussian, Inc. access to this program.  By using this program,
 the user acknowledges that Gaussian, Inc. is engaged in the
 business of creating and licensing software in the field of
 computational chemistry and represents and warrants to the
 licensee that it is not a competitor of Gaussian, Inc. and that
 it will not use this program in any manner prohibited above.
 ---------------------------------------------------------------
  

 Cite this work as:
 Gaussian 03, Revision D.01,
 M. J. Frisch, G. W. Trucks, H. B. Schlegel, G. E. Scuseria, 
 M. A. Robb, J. R. Cheeseman, J. A. Montgomery, Jr., T. Vreven, 
 K. N. Kudin, J. C. Burant, J. M. Millam, S. S. Iyengar, J. Tomasi, 
 V. Barone, B. Mennucci, M. Cossi, G. Scalmani, N. Rega, 
 G. A. Petersson, H. Nakatsuji, M. Hada, M. Ehara, K. Toyota, 
 R. Fukuda, J. Hasegawa, M. Ishida, T. Nakajima, Y. Honda, O. Kitao, 
 H. Nakai, M. Klene, X. Li, J. E. Knox, H. P. Hratchian, J. B. Cross, 
 V. Bakken, C. Adamo, J. Jaramillo, R. Gomperts, R. E. Stratmann, 
 O. Yazyev, A. J. Austin, R. Cammi, C. Pomelli, J. W. Ochterski, 
 P. Y. Ayala, K. Morokuma, G. A. Voth, P. Salvador, J. J. Dannenberg, 
 V. G. Zakrzewski, S. Dapprich, A. D. Daniels, M. C. Strain, 
 O. Farkas, D. K. Malick, A. D. Rabuck, K. Raghavachari, 
 J. B. Foresman, J. V. Ortiz, Q. Cui, A. G. Baboul, S. Clifford, 
 J. Cioslowski, B. B. Stefanov, G. Liu, A. Liashenko, P. Piskorz, 
 I. Komaromi, R. L. Martin, D. J. Fox, T. Keith, M. A. Al-Laham, 
 C. Y. Peng, A. Nanayakkara, M. Challacombe, P. M. W. Gill, 
 B. Johnson, W. Chen, M. W. Wong, C. Gonzalez, and J. A. Pople, 
 Gaussian, Inc., Wallingford CT, 2004.
 
 ******************************************
 Gaussian 03:  AM64L-G03RevD.01 13-Oct-2005
                29-May-2020 
 ******************************************
 %nproc=4
 Will use up to    4 processors via shared memory.
 %mem=20000MB
 ------------------------------------------------------
 #P b3lyp/STO-3G TD(NStates=6) SCFcyc=500 charge NoSymm
 ------------------------------------------------------
 1/18=10,28=-2,38=1/1;
 2/15=1,17=6,18=5,40=1/2;
 3/6=3,11=2,16=1,25=1,30=1,43=1,74=-5/1,2,8,3,7;
 4//1;
 5/5=2,7=500,38=5/2;
 8/6=1,10=1/1;
 9/41=6,42=1/14;
 6/7=2,8=2,9=2,10=2/1;
 99/5=1,9=1/99;
 Leave Link    1 at Fri May 29 11:38:18 2020, MaxMem= 2621440000 cpu:       0.2
 (Enter /home/yoelvis/bin/g03/l101.exe)
 -------------------------
 Gaussian template charges
 -------------------------
 Symbolic Z-matrix:
 Charge =  0 Multiplicity = 1
 C                     2.42828   0.00184   0.00608 
 C                     0.9156    0.00443  -0.00752 
 C                     0.19764  -1.20203  -0.00567 
 C                    -1.19886  -1.2088    0.00133 
 C                    -1.90787  -0.00307   0.00539 
 C                    -1.2065    1.20468   0.00147 
 C                     0.19222   1.20497  -0.00585 
 H                     2.83488  -0.7017   -0.73036 
 H                     2.83184   0.99494  -0.21845 
 H                     0.73971  -2.14607  -0.01124 
 H                    -1.73415  -2.15537   0.00109 
 H                    -2.99494  -0.00638   0.0089 
 H                    -1.74601   2.14882   0.00142 
 H                     0.72909   2.1516   -0.01142 
 H                     2.81652  -0.29802   0.98873 
 
                    Isotopes and Nuclear Properties:
 (Nuclear quadrupole moments (NQMom) in fm**2, nuclear magnetic moments (NMagM)
  in nuclear magnetons)

  Atom         1           2           3           4           5           6           7           8           9          10
 IAtWgt=          12          12          12          12          12          12          12           1           1           1
 AtmWgt=  12.0000000  12.0000000  12.0000000  12.0000000  12.0000000  12.0000000  12.0000000   1.0078250   1.0078250   1.0078250
 NucSpn=           0           0           0           0           0           0           0           1           1           1
 AtZEff=   0.0000000   0.0000000   0.0000000   0.0000000   0.0000000   0.0000000   0.0000000   0.0000000   0.0000000   0.0000000
 NQMom=    0.0000000   0.0000000   0.0000000   0.0000000   0.0000000   0.0000000   0.0000000   0.0000000   0.0000000   0.0000000
 NMagM=    0.0000000   0.0000000   0.0000000   0.0000000   0.0000000   0.0000000   0.0000000   2.7928460   2.7928460   2.7928460

  Atom        11          12          13          14          15
 IAtWgt=           1           1           1           1           1
 AtmWgt=   1.0078250   1.0078250   1.0078250   1.0078250   1.0078250
 NucSpn=           1           1           1           1           1
 AtZEff=   0.0000000   0.0000000   0.0000000   0.0000000   0.0000000
 NQMom=    0.0000000   0.0000000   0.0000000   0.0000000   0.0000000
 NMagM=    2.7928460   2.7928460   2.7928460   2.7928460   2.7928460
 Leave Link  101 at Fri May 29 11:38:28 2020, MaxMem= 2621440000 cpu:       0.1
 (Enter /home/yoelvis/bin/g03/l202.exe)
                          Input orientation:                          
 ---------------------------------------------------------------------
 Center     Atomic     Atomic              Coordinates (Angstroms)
 Number     Number      Type              X           Y           Z
 ---------------------------------------------------------------------
    1          6             0        2.428280    0.001838    0.006083
    2          6             0        0.915603    0.004430   -0.007524
    3          6             0        0.197635   -1.202030   -0.005671
    4          6             0       -1.198860   -1.208798    0.001330
    5          6             0       -1.907868   -0.003065    0.005385
    6          6             0       -1.206495    1.204683    0.001466
    7          6             0        0.192215    1.204974   -0.005849
    8          1             0        2.834884   -0.701703   -0.730361
    9          1             0        2.831835    0.994935   -0.218450
   10          1             0        0.739711   -2.146071   -0.011235
   11          1             0       -1.734149   -2.155365    0.001091
   12          1             0       -2.994936   -0.006384    0.008900
   13          1             0       -1.746013    2.148821    0.001421
   14          1             0        0.729092    2.151598   -0.011420
   15          1             0        2.816521   -0.298020    0.988731
 ---------------------------------------------------------------------
                    Distance matrix (angstroms):
                    1          2          3          4          5
     1  C    0.000000
     2  C    1.512740   0.000000
     3  C    2.534800   1.403933   0.000000
     4  C    3.823847   2.437818   1.396529   0.000000
     5  C    4.336151   2.823510   2.422970   1.398750   0.000000
     6  C    3.828635   2.438030   2.786377   2.413493   1.396637
     7  C    2.539225   1.401642   2.407010   2.785935   2.422774
     8  H    1.096652   2.169045   2.780393   4.130812   4.850063
     9  H    1.095223   2.167380   3.436705   4.599048   4.848803
    10  H    2.732230   2.157685   1.088619   2.153299   3.406233
    11  H    4.688216   3.418475   2.154224   1.087439   2.159304
    12  H    5.423223   3.910588   3.409148   2.161422   1.087079
    13  H    4.694069   3.417995   3.873760   3.401909   2.157968
    14  H    2.740258   2.155257   3.395482   3.874200   3.405351
    15  H    1.098291   2.167369   2.943575   4.234119   4.834648
                    6          7          8          9         10
     6  C    0.000000
     7  C    1.398729   0.000000
     8  H    4.527982   3.338268   0.000000
     9  H    4.049749   2.656484   1.772186   0.000000
    10  H    3.874975   3.395480   2.644445   3.779661   0.000000
    11  H    3.401226   3.873345   4.850177   5.551648   2.473908
    12  H    2.159921   3.409624   5.917497   5.916552   4.304214
    13  H    1.087417   2.155836   5.444778   4.726149   4.962366
    14  H    2.154834   1.088285   3.618365   2.408788   4.297682
    15  H    4.406525   3.183577   1.765949   1.768970   2.954381
                   11         12         13         14         15
    11  H    0.000000
    12  H    2.491539   0.000000
    13  H    4.304202   2.490938   0.000000
    14  H    4.961617   4.304147   2.475140   0.000000
    15  H    5.013358   5.900691   5.270534   3.370206   0.000000
 Symmetry turned off by external request.
 Stoichiometry    C7H8
 Framework group  C1[X(C7H8)]
 Deg. of freedom    39
 Full point group                 C1
 Rotational constants (GHZ):      5.5225639      2.5021768      1.7406439
 Leave Link  202 at Fri May 29 11:38:39 2020, MaxMem= 2621440000 cpu:       0.1
 (Enter /home/yoelvis/bin/g03/l301.exe)
 Standard basis: STO-3G (5D, 7F)
 Integral buffers will be    131072 words long.
 Raffenetti 2 integral format.
 Two-electron integral symmetry is turned off.
 Background charge distribution read from input stream:
 Point Charges:
 XYZ=    3.5437   -1.7890    2.7231 Q=    0.1000 A=    0.0000 R=    0.0000 C=    0.0000
 Sum of input charges=            0.100000
              Moments=            0.669662           -0.338072            0.514591
 Self energy of the charges =         0.0000000000
 MM   energy of the charges =         0.0000000000
 Nuclear-Charge attraction  =         0.5557172150
    43 basis functions,   129 primitive gaussians,    43 cartesian basis functions
    25 alpha electrons       25 beta electrons
       nuclear repulsion energy       268.3470963454 Hartrees.
 Nuclear repulsion after solvent point charges=      268.9028135603 Hartrees.
 IExCor= 402 DFT=T Ex=B+HF Corr=LYP ExCW=0 ScaHFX=  0.200000
 ScaDFX=  0.800000  0.720000  1.000000  0.810000
 IRadAn=      0 IRanWt=     -1 IRanGd=            0 ICorTp=0
 NAtoms=   15 NActive=   15 NUniq=   15 SFac= 7.50D-01 NAtFMM=   80 NAOKFM=F Big=F
 Leave Link  301 at Fri May 29 11:38:51 2020, MaxMem= 2621440000 cpu:       0.1
 (Enter /home/yoelvis/bin/g03/l302.exe)
 NPDir=0 NMtPBC=     1 NCelOv=     1 NCel=       1 NClECP=     1 NCelD=      1
         NCelK=      1 NCelE2=     1 NClLst=     1 CellRange=     0.0.
 One-electron integrals computed using PRISM.
 NBasis=    43 RedAO= T  NBF=    43
 NBsUse=    43 1.00D-06 NBFU=    43
 Precomputing XC quadrature grid using
 IXCGrd= 2 IRadAn=           0 IRanWt=          -1 IRanGd=           0.
 NRdTot=     932 NPtTot=      118162 NUsed=      124747 NTot=      124779
 NSgBfM=    43    43    43    43.
 Leave Link  302 at Fri May 29 11:39:02 2020, MaxMem= 2621440000 cpu:       0.6
 (Enter /home/yoelvis/bin/g03/l308.exe)
 Leave Link  308 at Fri May 29 11:39:13 2020, MaxMem= 2621440000 cpu:       0.0
 (Enter /home/yoelvis/bin/g03/l303.exe)
 DipDrv:  MaxL=1.
 Leave Link  303 at Fri May 29 11:39:24 2020, MaxMem= 2621440000 cpu:       0.0
 (Enter /home/yoelvis/bin/g03/l307.exe)
 Leave Link  307 at Fri May 29 11:39:35 2020, MaxMem= 2621440000 cpu:       0.0
 (Enter /home/yoelvis/bin/g03/l401.exe)
 Harris functional with IExCor=  402 diagonalized for initial guess.
 ExpMin= 1.69D-01 ExpMax= 7.16D+01 ExpMxC= 7.16D+01 IAcc=1 IRadAn=         1 AccDes= 1.00D-06
 HarFok:  IExCor= 402 AccDes= 1.00D-06 IRadAn=         1 IDoV=1
 ScaDFX=  1.000000  1.000000  1.000000  1.000000
 Harris En= -267.735675842045    
 Leave Link  401 at Fri May 29 11:39:47 2020, MaxMem= 2621440000 cpu:       0.4
 (Enter /home/yoelvis/bin/g03/l502.exe)
 Closed shell SCF:
 Requested convergence on RMS density matrix=1.00D-08 within 500 cycles.
 Requested convergence on MAX density matrix=1.00D-06.
 Requested convergence on             energy=1.00D-06.
 No special actions if energy rises.
 Using DIIS extrapolation, IDIIS=  1040.
 Two-electron integral symmetry not used.
       124746 words used for storage of precomputed grid.
 Keep R1 integrals in memory in canonical form, NReq=     2492080.
 IEnd=    384283 IEndB=    384283 NGot=2621440000 MDV=2620860665
 LenX=2620860665
 Symmetry not used in FoFDir.
 MinBra= 0 MaxBra= 1 Meth= 1.
 IRaf=       0 NMat=   1 IRICut=       1 DoRegI=T DoRafI=F ISym2E= 0 JSym2E=0.
 Integral accuracy reduced to 1.0D-05 until final iterations.

 Cycle   1  Pass 0  IDiag  1:
 E= -268.188457824901    
 DIIS: error= 2.66D-02 at cycle   1 NSaved=   1.
 NSaved= 1 IEnMin= 1 EnMin= -268.188457824901     IErMin= 1 ErrMin= 2.66D-02
 ErrMax= 2.66D-02 EMaxC= 1.00D-01 BMatC= 4.95D-02 BMatP= 4.95D-02
 IDIUse=3 WtCom= 7.34D-01 WtEn= 2.66D-01
 Coeff-Com:  0.100D+01
 Coeff-En:   0.100D+01
 Coeff:      0.100D+01
 Gap=     0.284 Goal=   None    Shift=    0.000
 GapD=    0.284 DampG=1.000 DampE=0.500 DampFc=0.5000 IDamp=-1.
 Damping current iteration by 5.00D-01
 RMSDP=1.27D-02 MaxDP=1.29D-01              OVMax= 0.00D+00

 Cycle   2  Pass 0  IDiag  1:
 E= -268.227380242510     Delta-E=       -0.038922417609 Rises=F Damp=T
 DIIS: error= 6.07D-03 at cycle   2 NSaved=   2.
 NSaved= 2 IEnMin= 2 EnMin= -268.227380242510     IErMin= 2 ErrMin= 6.07D-03
 ErrMax= 6.07D-03 EMaxC= 1.00D-01 BMatC= 2.40D-03 BMatP= 4.95D-02
 IDIUse=3 WtCom= 9.39D-01 WtEn= 6.07D-02
 Coeff-Com: -0.225D+00 0.122D+01
 Coeff-En:   0.000D+00 0.100D+01
 Coeff:     -0.211D+00 0.121D+01
 Gap=     0.278 Goal=   None    Shift=    0.000
 RMSDP=1.95D-03 MaxDP=1.71D-02 DE=-3.89D-02 OVMax= 0.00D+00

 Cycle   3  Pass 0  IDiag  1:
 E= -268.258395425368     Delta-E=       -0.031015182858 Rises=F Damp=F
 DIIS: error= 2.43D-03 at cycle   3 NSaved=   3.
 NSaved= 3 IEnMin= 3 EnMin= -268.258395425368     IErMin= 3 ErrMin= 2.43D-03
 ErrMax= 2.43D-03 EMaxC= 1.00D-01 BMatC= 2.68D-04 BMatP= 2.40D-03
 IDIUse=3 WtCom= 9.76D-01 WtEn= 2.43D-02
 Coeff-Com: -0.850D-01 0.426D+00 0.659D+00
 Coeff-En:   0.000D+00 0.000D+00 0.100D+01
 Coeff:     -0.829D-01 0.416D+00 0.667D+00
 Gap=     0.278 Goal=   None    Shift=    0.000
 RMSDP=7.14D-04 MaxDP=1.22D-02 DE=-3.10D-02 OVMax= 0.00D+00

 Cycle   4  Pass 0  IDiag  1:
 E= -268.258650318229     Delta-E=       -0.000254892861 Rises=F Damp=F
 DIIS: error= 1.72D-03 at cycle   4 NSaved=   4.
 NSaved= 4 IEnMin= 4 EnMin= -268.258650318229     IErMin= 4 ErrMin= 1.72D-03
 ErrMax= 1.72D-03 EMaxC= 1.00D-01 BMatC= 6.15D-05 BMatP= 2.68D-04
 IDIUse=3 WtCom= 9.83D-01 WtEn= 1.72D-02
 Coeff-Com: -0.147D-01 0.670D-01 0.333D+00 0.615D+00
 Coeff-En:   0.000D+00 0.000D+00 0.167D+00 0.833D+00
 Coeff:     -0.144D-01 0.658D-01 0.330D+00 0.618D+00
 Gap=     0.277 Goal=   None    Shift=    0.000
 RMSDP=2.99D-04 MaxDP=5.90D-03 DE=-2.55D-04 OVMax= 0.00D+00

 Cycle   5  Pass 0  IDiag  1:
 E= -268.258721219548     Delta-E=       -0.000070901319 Rises=F Damp=F
 DIIS: error= 5.45D-04 at cycle   5 NSaved=   5.
 NSaved= 5 IEnMin= 5 EnMin= -268.258721219548     IErMin= 5 ErrMin= 5.45D-04
 ErrMax= 5.45D-04 EMaxC= 1.00D-01 BMatC= 6.56D-06 BMatP= 6.15D-05
 IDIUse=3 WtCom= 9.95D-01 WtEn= 5.45D-03
 Coeff-Com: -0.131D-02 0.355D-02 0.128D+00 0.339D+00 0.531D+00
 Coeff-En:   0.000D+00 0.000D+00 0.000D+00 0.300D-01 0.970D+00
 Coeff:     -0.130D-02 0.353D-02 0.128D+00 0.337D+00 0.533D+00
 Gap=     0.277 Goal=   None    Shift=    0.000
 RMSDP=8.72D-05 MaxDP=1.21D-03 DE=-7.09D-05 OVMax= 0.00D+00

 Cycle   6  Pass 0  IDiag  1:
 E= -268.258730091405     Delta-E=       -0.000008871858 Rises=F Damp=F
 DIIS: error= 8.60D-05 at cycle   6 NSaved=   6.
 NSaved= 6 IEnMin= 6 EnMin= -268.258730091405     IErMin= 6 ErrMin= 8.60D-05
 ErrMax= 8.60D-05 EMaxC= 1.00D-01 BMatC= 1.22D-07 BMatP= 6.56D-06
 IDIUse=1 WtCom= 1.00D+00 WtEn= 0.00D+00
 Coeff-Com: -0.452D-03 0.801D-03 0.609D-01 0.165D+00 0.276D+00 0.498D+00
 Coeff:     -0.452D-03 0.801D-03 0.609D-01 0.165D+00 0.276D+00 0.498D+00
 Gap=     0.277 Goal=   None    Shift=    0.000
 RMSDP=1.34D-05 MaxDP=1.98D-04 DE=-8.87D-06 OVMax= 0.00D+00

 Cycle   7  Pass 0  IDiag  1:
 E= -268.258730249550     Delta-E=       -0.000000158145 Rises=F Damp=F
 DIIS: error= 2.07D-05 at cycle   7 NSaved=   7.
 NSaved= 7 IEnMin= 7 EnMin= -268.258730249550     IErMin= 7 ErrMin= 2.07D-05
 ErrMax= 2.07D-05 EMaxC= 1.00D-01 BMatC= 7.02D-09 BMatP= 1.22D-07
 IDIUse=1 WtCom= 1.00D+00 WtEn= 0.00D+00
 Coeff-Com: -0.200D-04-0.760D-04 0.613D-02 0.178D-01 0.355D-01 0.217D+00
 Coeff-Com:  0.724D+00
 Coeff:     -0.200D-04-0.760D-04 0.613D-02 0.178D-01 0.355D-01 0.217D+00
 Coeff:      0.724D+00
 Gap=     0.277 Goal=   None    Shift=    0.000
 RMSDP=2.75D-06 MaxDP=3.84D-05 DE=-1.58D-07 OVMax= 0.00D+00

 Initial convergence to 1.0D-05 achieved.  Increase integral accuracy.
 Cycle   8  Pass 1  IDiag  1:
 E= -268.258653604712     Delta-E=        0.000076644838 Rises=F Damp=F
 DIIS: error= 1.17D-05 at cycle   1 NSaved=   1.
 NSaved= 1 IEnMin= 1 EnMin= -268.258653604712     IErMin= 1 ErrMin= 1.17D-05
 ErrMax= 1.17D-05 EMaxC= 1.00D-01 BMatC= 2.14D-09 BMatP= 2.14D-09
 IDIUse=1 WtCom= 1.00D+00 WtEn= 0.00D+00
 Coeff-Com:  0.100D+01
 Coeff:      0.100D+01
 Gap=     0.277 Goal=   None    Shift=    0.000
 RMSDP=2.75D-06 MaxDP=3.84D-05 DE= 7.66D-05 OVMax= 0.00D+00

 Cycle   9  Pass 1  IDiag  1:
 E= -268.258653608867     Delta-E=       -0.000000004155 Rises=F Damp=F
 DIIS: error= 2.09D-06 at cycle   2 NSaved=   2.
 NSaved= 2 IEnMin= 2 EnMin= -268.258653608867     IErMin= 2 ErrMin= 2.09D-06
 ErrMax= 2.09D-06 EMaxC= 1.00D-01 BMatC= 2.11D-10 BMatP= 2.14D-09
 IDIUse=1 WtCom= 1.00D+00 WtEn= 0.00D+00
 Coeff-Com:  0.108D+00 0.892D+00
 Coeff:      0.108D+00 0.892D+00
 Gap=     0.277 Goal=   None    Shift=    0.000
 RMSDP=8.98D-07 MaxDP=1.66D-05 DE=-4.16D-09 OVMax= 0.00D+00

 Cycle  10  Pass 1  IDiag  1:
 E= -268.258653608799     Delta-E=        0.000000000068 Rises=F Damp=F
 DIIS: error= 2.19D-06 at cycle   3 NSaved=   3.
 NSaved= 3 IEnMin= 2 EnMin= -268.258653608867     IErMin= 2 ErrMin= 2.09D-06
 ErrMax= 2.19D-06 EMaxC= 1.00D-01 BMatC= 2.60D-10 BMatP= 2.11D-10
 IDIUse=1 WtCom= 1.00D+00 WtEn= 0.00D+00
 Coeff-Com: -0.213D-01 0.533D+00 0.488D+00
 Coeff:     -0.213D-01 0.533D+00 0.488D+00
 Gap=     0.277 Goal=   None    Shift=    0.000
 RMSDP=5.09D-07 MaxDP=9.41D-06 DE= 6.82D-11 OVMax= 0.00D+00

 Cycle  11  Pass 1  IDiag  1:
 E= -268.258653609132     Delta-E=       -0.000000000333 Rises=F Damp=F
 DIIS: error= 3.59D-07 at cycle   4 NSaved=   4.
 NSaved= 4 IEnMin= 4 EnMin= -268.258653609132     IErMin= 4 ErrMin= 3.59D-07
 ErrMax= 3.59D-07 EMaxC= 1.00D-01 BMatC= 3.52D-12 BMatP= 2.11D-10
 IDIUse=1 WtCom= 1.00D+00 WtEn= 0.00D+00
 Coeff-Com: -0.120D-01 0.258D+00 0.251D+00 0.503D+00
 Coeff:     -0.120D-01 0.258D+00 0.251D+00 0.503D+00
 Gap=     0.277 Goal=   None    Shift=    0.000
 RMSDP=7.42D-08 MaxDP=1.27D-06 DE=-3.33D-10 OVMax= 0.00D+00

 Cycle  12  Pass 1  IDiag  1:
 E= -268.258653609137     Delta-E=       -0.000000000005 Rises=F Damp=F
 DIIS: error= 7.81D-08 at cycle   5 NSaved=   5.
 NSaved= 5 IEnMin= 5 EnMin= -268.258653609137     IErMin= 5 ErrMin= 7.81D-08
 ErrMax= 7.81D-08 EMaxC= 1.00D-01 BMatC= 2.40D-13 BMatP= 3.52D-12
 IDIUse=1 WtCom= 1.00D+00 WtEn= 0.00D+00
 Coeff-Com: -0.311D-02 0.537D-01 0.570D-01 0.239D+00 0.654D+00
 Coeff:     -0.311D-02 0.537D-01 0.570D-01 0.239D+00 0.654D+00
 Gap=     0.277 Goal=   None    Shift=    0.000
 RMSDP=1.69D-08 MaxDP=2.60D-07 DE=-4.66D-12 OVMax= 0.00D+00

 Cycle  13  Pass 1  IDiag  1:
 E= -268.258653609139     Delta-E=       -0.000000000002 Rises=F Damp=F
 DIIS: error= 1.13D-08 at cycle   6 NSaved=   6.
 NSaved= 6 IEnMin= 6 EnMin= -268.258653609139     IErMin= 6 ErrMin= 1.13D-08
 ErrMax= 1.13D-08 EMaxC= 1.00D-01 BMatC= 5.21D-15 BMatP= 2.40D-13
 IDIUse=1 WtCom= 1.00D+00 WtEn= 0.00D+00
 Coeff-Com:  0.237D-04-0.322D-02-0.129D-02 0.366D-01 0.185D+00 0.783D+00
 Coeff:      0.237D-04-0.322D-02-0.129D-02 0.366D-01 0.185D+00 0.783D+00
 Gap=     0.277 Goal=   None    Shift=    0.000
 RMSDP=2.89D-09 MaxDP=3.14D-08 DE=-2.27D-12 OVMax= 0.00D+00

 SCF Done:  E(RB+HF-LYP) =  -268.258653609     A.U. after   13 cycles
             Convg  =    0.2889D-08             -V/T =  2.0169
             S**2   =   0.0000
 KE= 2.638015318279D+02 PE=-1.157715779823D+03 EE= 3.567527808259D+02
 Leave Link  502 at Fri May 29 11:40:00 2020, MaxMem= 2621440000 cpu:       8.3
 (Enter /home/yoelvis/bin/g03/l801.exe)
 ExpMin= 1.69D-01 ExpMax= 7.16D+01 ExpMxC= 7.16D+01 IAcc=1 IRadAn=         1 AccDes= 1.00D-06
 HarFok:  IExCor= 205 AccDes= 1.00D-06 IRadAn=         1 IDoV=1
 ScaDFX=  1.000000  1.000000  1.000000  1.000000
 Largest valence mixing into a core orbital is  2.03D-04
 Largest core mixing into a valence orbital is  2.45D-04
 Range of M.O.s used for correlation:     8    43
 NBasis=    43 NAE=    25 NBE=    25 NFC=     7 NFV=     0
 NROrb=     36 NOA=    18 NOB=    18 NVA=    18 NVB=    18
 Leave Link  801 at Fri May 29 11:40:11 2020, MaxMem= 2621440000 cpu:       0.1
 (Enter /home/yoelvis/bin/g03/l914.exe)
 RHF ground state
 MDV=2621440000 DFT=T DoStab=F Mixed=T DoRPA=T DoScal=F NonHer=T
 R1, R2, and R3 integrals will be kept in memory, NReq=     2143793.
 Symmetry not used in FoFDir.
 MinBra= 0 MaxBra= 1 Meth= 1.
 IRaf=       0 NMat=   1 IRICut=       1 DoRegI=T DoRafI=F ISym2E= 0 JSym2E=0.
 Making orbital integer symmetry assigments:
    24 initial guesses have been made.
 Convergence on wavefunction:    0.001000000000000
 Davidson Disk Diagonalization:  ConvIn= 1.00D-03 SkipCon=T Conv= 1.00D-03.
 Max sub-space:   200 roots to seek:    24 dimension of matrix:    648
 Iteration     1 Dimension    24 NMult    24
 CISAX:  IP=  4 NPass=   1 NMax=  24.
 CISAX will form  24 AO SS matrices at one time.
 NMat= 24 NSing= 24.
 CISAX:  IP=  4 NPass=   1 NMax=  24.
 CISAX will form  24 AO SS matrices at one time.
 NMat= 24 NSing= 24.
 New state      1 was old state      2
 New state      2 was old state      1
 New state      3 was old state      5
 New state      4 was old state      6
 Excitation Energies [eV] at current iteration:
 Root      1 :     6.325694748294000
 Root      2 :     8.665746711462983
 Root      3 :     8.971195875344959
 Root      4 :     9.092810843689406
 Root      5 :     9.120425202467180
 Root      6 :     9.163672555292361
 Iteration     2 Dimension    36 NMult    36
 CISAX:  IP=  1 NPass=   1 NMax=  12.
 CISAX will form  12 AO SS matrices at one time.
 NMat= 12 NSing= 12.
 CISAX:  IP=  1 NPass=   1 NMax=  12.
 CISAX will form  12 AO SS matrices at one time.
 NMat= 12 NSing= 12.
 Root      1 not converged, maximum delta is    0.007539402357095
 Root      2 not converged, maximum delta is    0.086875681323660
 Root      3 not converged, maximum delta is    0.030969170632777
 Root      4 not converged, maximum delta is    0.082965959208357
 Root      5 not converged, maximum delta is    0.075672679596482
 Root      6 not converged, maximum delta is    0.069145938152671
 Excitation Energies [eV] at current iteration:
 Root      1 :     6.311120040277976   Change is   -0.014574708016024
 Root      2 :     7.584530187112184   Change is   -1.081216524350799
 Root      3 :     8.915047051989578   Change is   -0.056148823355380
 Root      4 :     9.049876231385038   Change is   -0.042934612304369
 Root      5 :     9.077240380006270   Change is   -0.043184822460911
 Root      6 :     9.127256772294695   Change is   -0.036415782997668
 Iteration     3 Dimension    48 NMult    48
 CISAX:  IP=  1 NPass=   1 NMax=  12.
 CISAX will form  12 AO SS matrices at one time.
 NMat= 12 NSing= 12.
 CISAX:  IP=  1 NPass=   1 NMax=  12.
 CISAX will form  12 AO SS matrices at one time.
 NMat= 12 NSing= 12.
 Root      1 has converged.
 Root      2 not converged, maximum delta is    0.007745920863753
 No map to state      3
 New state      4 was old state      3
 Root      4 not converged, maximum delta is    0.613082441772171
 New state      5 was old state      4
 Root      5 not converged, maximum delta is    0.555937577604838
 New state      6 was old state      4
 Root      6 not converged, maximum delta is    0.501723235873305
 Excitation Energies [eV] at current iteration:
 Root      1 :     6.311019074002317   Change is   -0.000100966275659
 Root      2 :     7.571412969511504   Change is   -0.013117217600680
 Root      3 :     8.810788671499340
 Root      4 :     8.914756329197413   Change is   -0.000290722792165
 Root      5 :     8.964736986018472   Change is   -0.085139245366566
 Root      6 :     9.053277346587709   Change is    0.003401115202670
 Iteration     4 Dimension    58 NMult    58
 CISAX:  IP=  1 NPass=   1 NMax=  10.
 CISAX will form  10 AO SS matrices at one time.
 NMat= 10 NSing= 10.
 CISAX:  IP=  1 NPass=   1 NMax=  10.
 CISAX will form  10 AO SS matrices at one time.
 NMat= 10 NSing= 10.
 Root      1 has converged.
 Root      2 not converged, maximum delta is    0.001002928969541
 New state      3 was old state      5
 Root      3 not converged, maximum delta is    0.195188542143564
 New state      4 was old state      3
 Root      4 not converged, maximum delta is    0.184977289944345
 New state      5 was old state      4
 Root      5 not converged, maximum delta is    0.009233681649243
 Root      6 not converged, maximum delta is    0.069537275566759
 Excitation Energies [eV] at current iteration:
 Root      1 :     6.311018749766441   Change is   -0.000000324235877
 Root      2 :     7.571186904407690   Change is   -0.000226065103814
 Root      3 :     8.679726665869556   Change is   -0.285010320148917
 Root      4 :     8.702217626852320   Change is   -0.108571044647020
 Root      5 :     8.914730829409919   Change is   -0.000025499787495
 Root      6 :     9.049925220873870   Change is   -0.003352125713837
 Iteration     5 Dimension    68 NMult    68
 CISAX:  IP=  1 NPass=   1 NMax=  10.
 CISAX will form  10 AO SS matrices at one time.
 NMat= 10 NSing= 10.
 CISAX:  IP=  1 NPass=   1 NMax=  10.
 CISAX will form  10 AO SS matrices at one time.
 NMat= 10 NSing= 10.
 Root      1 has converged.
 Root      2 has converged.
 Root      3 not converged, maximum delta is    0.033938093716188
 Root      4 not converged, maximum delta is    0.024282988415376
 Root      5 has converged.
 Root      6 has converged.
 Excitation Energies [eV] at current iteration:
 Root      1 :     6.311018618103630   Change is   -0.000000131662810
 Root      2 :     7.571178577313431   Change is   -0.000008327094259
 Root      3 :     8.673150635146056   Change is   -0.006576030723499
 Root      4 :     8.699542591456664   Change is   -0.002675035395655
 Root      5 :     8.914730450776393   Change is   -0.000000378633526
 Root      6 :     9.049904183566406   Change is   -0.000021037307466
 Iteration     6 Dimension    72 NMult    72
 CISAX:  IP=  1 NPass=   1 NMax=   4.
 CISAX will form   4 AO SS matrices at one time.
 NMat=  4 NSing=  4.
 CISAX:  IP=  1 NPass=   1 NMax=   4.
 CISAX will form   4 AO SS matrices at one time.
 NMat=  4 NSing=  4.
 Root      1 has converged.
 Root      2 has converged.
 Root      3 has converged.
 Root      4 has converged.
 Root      5 has converged.
 Root      6 has converged.
 Excitation Energies [eV] at current iteration:
 Root      1 :     6.311018571560735   Change is   -0.000000046542896
 Root      2 :     7.571178501845941   Change is   -0.000000075467491
 Root      3 :     8.672927812076537   Change is   -0.000222823069520
 Root      4 :     8.699462012366554   Change is   -0.000080579090110
 Root      5 :     8.914730439024394   Change is   -0.000000011751997
 Root      6 :     9.049903530810013   Change is   -0.000000652756392
 Convergence achieved on expansion vectors.
 ***********************************************************************
 Excited states from <AA,BB:AA,BB> singles matrix:
 ***********************************************************************
 
 1PDM for each excited state written to RWF  633
 Ground to excited state Transition electric dipole moments (Au):
       state          X           Y           Z          Osc.
         1        -0.0130     -0.0357     -0.0001      0.0002
         2        -0.4148     -0.0252     -0.0160      0.0321
         3        -1.7922     -0.4997     -0.0086      0.7355
         4        -0.6223      1.5495     -0.0037      0.5943
         5        -0.0029      0.0251      0.0162      0.0002
         6        -0.0417      0.0015     -0.0116      0.0004
 Ground to excited state transition velocity dipole Moments (Au):
       state          X           Y           Z          Osc.
         1         0.0024      0.0046      0.0000      0.0001
         2         0.0767      0.0037      0.0042      0.0142
         3         0.3669      0.0986      0.0033      0.3020
         4         0.1253     -0.3108      0.0013      0.2342
         5         0.0008     -0.0054     -0.0034      0.0001
         6         0.0105     -0.0002      0.0077      0.0003
 Ground to excited state transition magnetic dipole Moments (Au):
       state          X           Y           Z
         1        -0.0012     -0.0002     -0.0418
         2         0.0005     -0.0176     -0.0570
         3         0.0021     -0.0209     -0.1690
         4        -0.0031     -0.0066      0.4004
         5         0.0971     -0.0006     -0.0108
         6        -0.0059     -0.1255      0.0018
 <0|del|b> * <b|rxdel|0>  (Au), Rotatory Strengths (R) in
 cgs (10**-40 erg-esu-cm/Gauss)
       state          X           Y           Z     R(velocity)
         1         0.0000      0.0000      0.0000     -0.0046
         2         0.0000     -0.0001     -0.0002     -0.2261
         3         0.0008     -0.0021     -0.0006     -1.3584
         4        -0.0004      0.0021      0.0005      1.6004
         5         0.0001      0.0000      0.0000      0.0840
         6        -0.0001      0.0000      0.0000     -0.0131
 <0|r|b> * <b|rxdel|0>  (Au), Rotatory Strengths (R) in
 cgs (10**-40 erg-esu-cm/Gauss)
       state          X           Y           Z     R(length)
         1         0.0000      0.0000      0.0000     -0.0064
         2        -0.0002      0.0004      0.0009     -0.2708
         3        -0.0038      0.0105      0.0014     -1.9019
         4         0.0020     -0.0102     -0.0015      2.2959
         5        -0.0003      0.0000     -0.0002      0.1113
         6         0.0002     -0.0002      0.0000     -0.0090
  <0|del|b> * <b|r|0>  (Au)
       state          X           Y           Z       Osc.(frdel)
         1         0.0000     -0.0002      0.0000      0.0001
         2        -0.0318     -0.0001     -0.0001      0.0213
         3        -0.6576     -0.0493      0.0000      0.4713
         4        -0.0780     -0.4817      0.0000      0.3731
         5         0.0000     -0.0001     -0.0001      0.0001
         6        -0.0004      0.0000     -0.0001      0.0004
 Ground to excited state transition densities written to RWF  633

 Excitation energies and oscillator strengths:
 
 Excited state symmetry could not be determined.
 Excited State   1:   Singlet-?Sym    6.3110 eV  196.46 nm  f=0.0002
      24 -> 26         0.48333
      24 -> 27        -0.13816
      25 -> 26         0.14748
      25 -> 27         0.49556
 This state for optimization and/or second-order correction.
 Total Energy, E(RPA) =  -268.026727931    
 Copying the excited state density for this state as the 1-particle RhoCI density.
 
 Excited state symmetry could not be determined.
 Excited State   2:   Singlet-?Sym    7.5712 eV  163.76 nm  f=0.0321
      24 -> 26        -0.11628
      24 -> 27        -0.37288
      25 -> 26         0.49459
      25 -> 27        -0.13853
 
 Excited state symmetry could not be determined.
 Excited State   3:   Singlet-?Sym    8.6729 eV  142.96 nm  f=0.7355
      24 -> 27         0.47407
      25 -> 26         0.34524
 
 Excited state symmetry could not be determined.
 Excited State   4:   Singlet-?Sym    8.6995 eV  142.52 nm  f=0.5943
      24 -> 26         0.42501
      25 -> 27        -0.40287
 
 Excited state symmetry could not be determined.
 Excited State   5:   Singlet-?Sym    8.9147 eV  139.08 nm  f=0.0002
      22 -> 26        -0.14806
      22 -> 27        -0.21016
      23 -> 26         0.63882
      23 -> 27        -0.14194
 
 Excited state symmetry could not be determined.
 Excited State   6:   Singlet-?Sym    9.0499 eV  137.00 nm  f=0.0004
      22 -> 26        -0.34495
      23 -> 27         0.59644
 Leave Link  914 at Fri May 29 11:40:33 2020, MaxMem= 2621440000 cpu:      41.6
 (Enter /home/yoelvis/bin/g03/l601.exe)
 Copying SCF densities to generalized density rwf, ISCF=0 IROHF=0.

 **********************************************************************

            Population analysis using the SCF density.

 **********************************************************************

 Alpha  occ. eigenvalues --  -10.02923 -10.02467 -10.01238 -10.01206 -10.01086
 Alpha  occ. eigenvalues --  -10.00973 -10.00956  -0.81791  -0.73863  -0.70768
 Alpha  occ. eigenvalues --   -0.65675  -0.57091  -0.55128  -0.48034  -0.42574
 Alpha  occ. eigenvalues --   -0.42261  -0.39901  -0.38460  -0.37432  -0.35825
 Alpha  occ. eigenvalues --   -0.31385  -0.30378  -0.30136  -0.20191  -0.19509
 Alpha virt. eigenvalues --    0.08239   0.08480   0.24411   0.33652   0.37230
 Alpha virt. eigenvalues --    0.38916   0.42510   0.44478   0.44690   0.46065
 Alpha virt. eigenvalues --    0.47267   0.47865   0.58031   0.58799   0.60081
 Alpha virt. eigenvalues --    0.61148   0.75736   0.80459
          Condensed to atoms (all electrons):
              1          2          3          4          5          6
     1  C    4.770309   0.383131  -0.027753   0.000855   0.000017   0.000870
     2  C    0.383131   4.785497   0.500680  -0.027798  -0.011301  -0.027831
     3  C   -0.027753   0.500680   4.814451   0.507354  -0.029618  -0.012212
     4  C    0.000855  -0.027798   0.507354   4.798670   0.503095  -0.030424
     5  C    0.000017  -0.011301  -0.029618   0.503095   4.800929   0.505241
     6  C    0.000870  -0.027831  -0.012212  -0.030424   0.505241   4.798747
     7  C   -0.027860   0.503654  -0.032120  -0.012266  -0.029578   0.504734
     8  H    0.378589  -0.019824  -0.003163   0.000017   0.000002  -0.000021
     9  H    0.381275  -0.019750   0.001295  -0.000022   0.000000   0.000039
    10  H   -0.003512  -0.026292   0.390464  -0.025837   0.001471   0.000045
    11  H   -0.000016   0.001415  -0.025642   0.391579  -0.025442   0.001483
    12  H    0.000001   0.000034   0.001449  -0.025282   0.391893  -0.025306
    13  H   -0.000016   0.001410   0.000036   0.001486  -0.025448   0.391607
    14  H   -0.003907  -0.026270   0.001484   0.000046   0.001465  -0.025743
    15  H    0.375509  -0.020276  -0.001572  -0.000004   0.000003  -0.000019
              7          8          9         10         11         12
     1  C   -0.027860   0.378589   0.381275  -0.003512  -0.000016   0.000001
     2  C    0.503654  -0.019824  -0.019750  -0.026292   0.001415   0.000034
     3  C   -0.032120  -0.003163   0.001295   0.390464  -0.025642   0.001449
     4  C   -0.012266   0.000017  -0.000022  -0.025837   0.391579  -0.025282
     5  C   -0.029578   0.000002   0.000000   0.001471  -0.025442   0.391893
     6  C    0.504734  -0.000021   0.000039   0.000045   0.001483  -0.025306
     7  C    4.812033   0.000967  -0.004573   0.001492   0.000037   0.001453
     8  H    0.000967   0.600597  -0.020457   0.000384  -0.000001   0.000000
     9  H   -0.004573  -0.020457   0.599131   0.000025   0.000000   0.000000
    10  H    0.001492   0.000384   0.000025   0.590858  -0.003930  -0.000035
    11  H    0.000037  -0.000001   0.000000  -0.003930   0.583666  -0.003680
    12  H    0.001453   0.000000   0.000000  -0.000035  -0.003680   0.581973
    13  H   -0.025547   0.000000  -0.000002   0.000002  -0.000036  -0.003706
    14  H    0.390709   0.000037   0.000777  -0.000038   0.000002  -0.000035
    15  H    0.000226  -0.021164  -0.020841   0.000173   0.000000   0.000000
             13         14         15
     1  C   -0.000016  -0.003907   0.375509
     2  C    0.001410  -0.026270  -0.020276
     3  C    0.000036   0.001484  -0.001572
     4  C    0.001486   0.000046  -0.000004
     5  C   -0.025448   0.001465   0.000003
     6  C    0.391607  -0.025743  -0.000019
     7  C   -0.025547   0.390709   0.000226
     8  H    0.000000   0.000037  -0.021164
     9  H   -0.000002   0.000777  -0.020841
    10  H    0.000002  -0.000038   0.000173
    11  H   -0.000036   0.000002   0.000000
    12  H   -0.003706  -0.000035   0.000000
    13  H    0.582896  -0.003894   0.000000
    14  H   -0.003894   0.588140   0.000066
    15  H    0.000000   0.000066   0.612071
 Mulliken atomic charges:
              1
     1  C   -0.227491
     2  C    0.003521
     3  C   -0.085133
     4  C   -0.081470
     5  C   -0.082729
     6  C   -0.081208
     7  C   -0.083359
     8  H    0.084035
     9  H    0.083102
    10  H    0.074730
    11  H    0.080564
    12  H    0.081240
    13  H    0.081211
    14  H    0.077159
    15  H    0.075828
 Sum of Mulliken charges=   0.00000
 Atomic charges with hydrogens summed into heavy atoms:
              1
     1  C    0.015474
     2  C    0.003521
     3  C   -0.010403
     4  C   -0.000905
     5  C   -0.001489
     6  C    0.000002
     7  C   -0.006200
     8  H    0.000000
     9  H    0.000000
    10  H    0.000000
    11  H    0.000000
    12  H    0.000000
    13  H    0.000000
    14  H    0.000000
    15  H    0.000000
 Sum of Mulliken charges=   0.00000
 Electronic spatial extent (au):  <R**2>=   715.4900
 Charge=     0.0000 electrons
 Dipole moment (field-independent basis, Debye):
    X=     0.2137    Y=     0.0322    Z=    -0.0265  Tot=     0.2177
 Quadrupole moment (field-independent basis, Debye-Ang):
   XX=   -36.1723   YY=   -36.6187   ZZ=   -41.1265
   XY=    -0.0099   XZ=    -0.0652   YZ=     0.0143
 Traceless Quadrupole moment (field-independent basis, Debye-Ang):
   XX=     1.8002   YY=     1.3538   ZZ=    -3.1540
   XY=    -0.0099   XZ=    -0.0652   YZ=     0.0143
 Octapole moment (field-independent basis, Debye-Ang**2):
  XXX=    -2.8815  YYY=     0.5673  ZZZ=     0.3092  XYY=    -0.4489
  XXY=     0.0075  XXZ=    -0.1845  XZZ=     2.0619  YZZ=    -0.3920
  YYZ=    -0.3796  XYZ=     0.0375
 Hexadecapole moment (field-independent basis, Debye-Ang**3):
 XXXX=  -567.9303 YYYY=  -265.9254 ZZZZ=   -40.1051 XXXY=    -0.0609
 XXXZ=    -0.7262 YYYX=     1.2252 YYYZ=     0.0245 ZZZX=     0.9332
 ZZZY=     0.0005 XXYY=  -136.0294 XXZZ=  -106.4561 YYZZ=   -57.4881
 XXYZ=     0.1276 YYXZ=    -1.0556 ZZXY=    -1.2056
 N-N= 2.689028135603D+02 E-N=-1.157715780877D+03  KE= 2.638015318279D+02
 Leave Link  601 at Fri May 29 11:40:44 2020, MaxMem= 2621440000 cpu:       0.0
 (Enter /home/yoelvis/bin/g03/l9999.exe)

 Test job not archived.
 1\1\GINC-COMET-11-59\SP\RTD-B3LYP-FC\STO-3G\C7H8\YOELVIS\29-May-2020\0
 \\#P b3lyp/STO-3G TD(NStates=6) SCFcyc=500 charge NoSymm\\Gaussian tem
 plate charges\\0,1\C,0,2.42828,0.001838,0.006083\C,0,0.915603,0.00443,
 -0.007524\C,0,0.197635,-1.20203,-0.005671\C,0,-1.19886,-1.208798,0.001
 33\C,0,-1.907868,-0.003065,0.005385\C,0,-1.206495,1.204683,0.001466\C,
 0,0.192215,1.204974,-0.005849\H,0,2.834884,-0.701703,-0.730361\H,0,2.8
 31835,0.994935,-0.21845\H,0,0.739711,-2.146071,-0.011235\H,0,-1.734149
 ,-2.155365,0.001091\H,0,-2.994936,-0.006384,0.0089\H,0,-1.746013,2.148
 821,0.001421\H,0,0.729092,2.151598,-0.01142\H,0,2.816521,-0.29802,0.98
 8731\\Version=AM64L-G03RevD.01\HF=-268.2586536\RMSD=2.889e-09\Thermal=
 0.\PG=C01 [X(C7H8)]\\@


 WOMEN HOLD UP HALF THE SKY. -- MAO TSE TUNG
 Job cpu time:  0 days  0 hours  3 minutes 15.5 seconds.
 File lengths (MBytes):  RWF=     27 Int=      0 D2E=      0 Chk=     10 Scr=      1
 Normal termination of Gaussian 03 at Fri May 29 11:40:55 2020.
 Initial command:
 /home/yoelvis/bin/g03/l1.exe /scratch/yoelvis/33721104/scr/Gau-4355.inp -scrdir=/scratch/yoelvis/33721104/scr/
 Entering Link 1 = /home/yoelvis/bin/g03/l1.exe PID=      4946.
  
 Copyright (c) 1988,1990,1992,1993,1995,1998,2003,2004, Gaussian, Inc.
                  All Rights Reserved.
  
 This is the Gaussian(R) 03 program.  It is based on the
 the Gaussian(R) 98 system (copyright 1998, Gaussian, Inc.),
 the Gaussian(R) 94 system (copyright 1995, Gaussian, Inc.),
 the Gaussian 92(TM) system (copyright 1992, Gaussian, Inc.),
 the Gaussian 90(TM) system (copyright 1990, Gaussian, Inc.),
 the Gaussian 88(TM) system (copyright 1988, Gaussian, Inc.),
 the Gaussian 86(TM) system (copyright 1986, Carnegie Mellon
 University), and the Gaussian 82(TM) system (copyright 1983,
 Carnegie Mellon University). Gaussian is a federally registered
 trademark of Gaussian, Inc.
  
 This software contains proprietary and confidential information,
 including trade secrets, belonging to Gaussian, Inc.
  
 This software is provided under written license and may be
 used, copied, transmitted, or stored only in accord with that
 written license.
  
 The following legend is applicable only to US Government
 contracts under FAR:
  
                    RESTRICTED RIGHTS LEGEND
  
 Use, reproduction and disclosure by the US Government is
 subject to restrictions as set forth in subparagraphs (a)
 and (c) of the Commercial Computer Software - Restricted
 Rights clause in FAR 52.227-19.
  
 Gaussian, Inc.
 340 Quinnipiac St., Bldg. 40, Wallingford CT 06492
  
  
 ---------------------------------------------------------------
 Warning -- This program may not be used in any manner that
 competes with the business of Gaussian, Inc. or will provide
 assistance to any competitor of Gaussian, Inc.  The licensee
 of this program is prohibited from giving any competitor of
 Gaussian, Inc. access to this program.  By using this program,
 the user acknowledges that Gaussian, Inc. is engaged in the
 business of creating and licensing software in the field of
 computational chemistry and represents and warrants to the
 licensee that it is not a competitor of Gaussian, Inc. and that
 it will not use this program in any manner prohibited above.
 ---------------------------------------------------------------
  

 Cite this work as:
 Gaussian 03, Revision D.01,
 M. J. Frisch, G. W. Trucks, H. B. Schlegel, G. E. Scuseria, 
 M. A. Robb, J. R. Cheeseman, J. A. Montgomery, Jr., T. Vreven, 
 K. N. Kudin, J. C. Burant, J. M. Millam, S. S. Iyengar, J. Tomasi, 
 V. Barone, B. Mennucci, M. Cossi, G. Scalmani, N. Rega, 
 G. A. Petersson, H. Nakatsuji, M. Hada, M. Ehara, K. Toyota, 
 R. Fukuda, J. Hasegawa, M. Ishida, T. Nakajima, Y. Honda, O. Kitao, 
 H. Nakai, M. Klene, X. Li, J. E. Knox, H. P. Hratchian, J. B. Cross, 
 V. Bakken, C. Adamo, J. Jaramillo, R. Gomperts, R. E. Stratmann, 
 O. Yazyev, A. J. Austin, R. Cammi, C. Pomelli, J. W. Ochterski, 
 P. Y. Ayala, K. Morokuma, G. A. Voth, P. Salvador, J. J. Dannenberg, 
 V. G. Zakrzewski, S. Dapprich, A. D. Daniels, M. C. Strain, 
 O. Farkas, D. K. Malick, A. D. Rabuck, K. Raghavachari, 
 J. B. Foresman, J. V. Ortiz, Q. Cui, A. G. Baboul, S. Clifford, 
 J. Cioslowski, B. B. Stefanov, G. Liu, A. Liashenko, P. Piskorz, 
 I. Komaromi, R. L. Martin, D. J. Fox, T. Keith, M. A. Al-Laham, 
 C. Y. Peng, A. Nanayakkara, M. Challacombe, P. M. W. Gill, 
 B. Johnson, W. Chen, M. W. Wong, C. Gonzalez, and J. A. Pople, 
 Gaussian, Inc., Wallingford CT, 2004.
 
 ******************************************
 Gaussian 03:  AM64L-G03RevD.01 13-Oct-2005
                29-May-2020 
 ******************************************
 %nproc=4
 Will use up to    4 processors via shared memory.
 %mem=20000MB
 ------------------------------------------------------
 #P b3lyp/STO-3G TD(NStates=6) SCFcyc=500 charge NoSymm
 ------------------------------------------------------
 1/18=10,28=-2,38=1/1;
 2/15=1,17=6,18=5,40=1/2;
 3/6=3,11=2,16=1,25=1,30=1,43=1,74=-5/1,2,8,3,7;
 4//1;
 5/5=2,7=500,38=5/2;
 8/6=1,10=1/1;
 9/41=6,42=1/14;
 6/7=2,8=2,9=2,10=2/1;
 99/5=1,9=1/99;
 Leave Link    1 at Fri May 29 11:40:56 2020, MaxMem= 2621440000 cpu:       0.2
 (Enter /home/yoelvis/bin/g03/l101.exe)
 -------------------------
 Gaussian template charges
 -------------------------
 Symbolic Z-matrix:
 Charge =  0 Multiplicity = 1
 C                     2.42828   0.00184   0.00608 
 C                     0.9156    0.00443  -0.00752 
 C                     0.19764  -1.20203  -0.00567 
 C                    -1.19886  -1.2088    0.00133 
 C                    -1.90787  -0.00307   0.00539 
 C                    -1.2065    1.20468   0.00147 
 C                     0.19222   1.20497  -0.00585 
 H                     2.83488  -0.7017   -0.73036 
 H                     2.83184   0.99494  -0.21845 
 H                     0.73971  -2.14607  -0.01124 
 H                    -1.73415  -2.15537   0.00109 
 H                    -2.99494  -0.00638   0.0089 
 H                    -1.74601   2.14882   0.00142 
 H                     0.72909   2.1516   -0.01142 
 H                     2.81652  -0.29802   0.98873 
 
                    Isotopes and Nuclear Properties:
 (Nuclear quadrupole moments (NQMom) in fm**2, nuclear magnetic moments (NMagM)
  in nuclear magnetons)

  Atom         1           2           3           4           5           6           7           8           9          10
 IAtWgt=          12          12          12          12          12          12          12           1           1           1
 AtmWgt=  12.0000000  12.0000000  12.0000000  12.0000000  12.0000000  12.0000000  12.0000000   1.0078250   1.0078250   1.0078250
 NucSpn=           0           0           0           0           0           0           0           1           1           1
 AtZEff=   0.0000000   0.0000000   0.0000000   0.0000000   0.0000000   0.0000000   0.0000000   0.0000000   0.0000000   0.0000000
 NQMom=    0.0000000   0.0000000   0.0000000   0.0000000   0.0000000   0.0000000   0.0000000   0.0000000   0.0000000   0.0000000
 NMagM=    0.0000000   0.0000000   0.0000000   0.0000000   0.0000000   0.0000000   0.0000000   2.7928460   2.7928460   2.7928460

  Atom        11          12          13          14          15
 IAtWgt=           1           1           1           1           1
 AtmWgt=   1.0078250   1.0078250   1.0078250   1.0078250   1.0078250
 NucSpn=           1           1           1           1           1
 AtZEff=   0.0000000   0.0000000   0.0000000   0.0000000   0.0000000
 NQMom=    0.0000000   0.0000000   0.0000000   0.0000000   0.0000000
 NMagM=    2.7928460   2.7928460   2.7928460   2.7928460   2.7928460
 Leave Link  101 at Fri May 29 11:41:06 2020, MaxMem= 2621440000 cpu:       0.1
 (Enter /home/yoelvis/bin/g03/l202.exe)
                          Input orientation:                          
 ---------------------------------------------------------------------
 Center     Atomic     Atomic              Coordinates (Angstroms)
 Number     Number      Type              X           Y           Z
 ---------------------------------------------------------------------
    1          6             0        2.428280    0.001838    0.006083
    2          6             0        0.915603    0.004430   -0.007524
    3          6             0        0.197635   -1.202030   -0.005671
    4          6             0       -1.198860   -1.208798    0.001330
    5          6             0       -1.907868   -0.003065    0.005385
    6          6             0       -1.206495    1.204683    0.001466
    7          6             0        0.192215    1.204974   -0.005849
    8          1             0        2.834884   -0.701703   -0.730361
    9          1             0        2.831835    0.994935   -0.218450
   10          1             0        0.739711   -2.146071   -0.011235
   11          1             0       -1.734149   -2.155365    0.001091
   12          1             0       -2.994936   -0.006384    0.008900
   13          1             0       -1.746013    2.148821    0.001421
   14          1             0        0.729092    2.151598   -0.011420
   15          1             0        2.816521   -0.298020    0.988731
 ---------------------------------------------------------------------
                    Distance matrix (angstroms):
                    1          2          3          4          5
     1  C    0.000000
     2  C    1.512740   0.000000
     3  C    2.534800   1.403933   0.000000
     4  C    3.823847   2.437818   1.396529   0.000000
     5  C    4.336151   2.823510   2.422970   1.398750   0.000000
     6  C    3.828635   2.438030   2.786377   2.413493   1.396637
     7  C    2.539225   1.401642   2.407010   2.785935   2.422774
     8  H    1.096652   2.169045   2.780393   4.130812   4.850063
     9  H    1.095223   2.167380   3.436705   4.599048   4.848803
    10  H    2.732230   2.157685   1.088619   2.153299   3.406233
    11  H    4.688216   3.418475   2.154224   1.087439   2.159304
    12  H    5.423223   3.910588   3.409148   2.161422   1.087079
    13  H    4.694069   3.417995   3.873760   3.401909   2.157968
    14  H    2.740258   2.155257   3.395482   3.874200   3.405351
    15  H    1.098291   2.167369   2.943575   4.234119   4.834648
                    6          7          8          9         10
     6  C    0.000000
     7  C    1.398729   0.000000
     8  H    4.527982   3.338268   0.000000
     9  H    4.049749   2.656484   1.772186   0.000000
    10  H    3.874975   3.395480   2.644445   3.779661   0.000000
    11  H    3.401226   3.873345   4.850177   5.551648   2.473908
    12  H    2.159921   3.409624   5.917497   5.916552   4.304214
    13  H    1.087417   2.155836   5.444778   4.726149   4.962366
    14  H    2.154834   1.088285   3.618365   2.408788   4.297682
    15  H    4.406525   3.183577   1.765949   1.768970   2.954381
                   11         12         13         14         15
    11  H    0.000000
    12  H    2.491539   0.000000
    13  H    4.304202   2.490938   0.000000
    14  H    4.961617   4.304147   2.475140   0.000000
    15  H    5.013358   5.900691   5.270534   3.370206   0.000000
 Symmetry turned off by external request.
 Stoichiometry    C7H8
 Framework group  C1[X(C7H8)]
 Deg. of freedom    39
 Full point group                 C1
 Rotational constants (GHZ):      5.5225639      2.5021768      1.7406439
 Leave Link  202 at Fri May 29 11:41:17 2020, MaxMem= 2621440000 cpu:       0.1
 (Enter /home/yoelvis/bin/g03/l301.exe)
 Standard basis: STO-3G (5D, 7F)
 Integral buffers will be    131072 words long.
 Raffenetti 2 integral format.
 Two-electron integral symmetry is turned off.
 Background charge distribution read from input stream:
 Point Charges:
 XYZ=    4.4199   -1.0959    2.5864 Q=    0.1000 A=    0.0000 R=    0.0000 C=    0.0000
 Sum of input charges=            0.100000
              Moments=            0.835240           -0.207095            0.488759
 Self energy of the charges =         0.0000000000
 MM   energy of the charges =         0.0000000000
 Nuclear-Charge attraction  =         0.5230666626
    43 basis functions,   129 primitive gaussians,    43 cartesian basis functions
    25 alpha electrons       25 beta electrons
       nuclear repulsion energy       268.3470963454 Hartrees.
 Nuclear repulsion after solvent point charges=      268.8701630079 Hartrees.
 IExCor= 402 DFT=T Ex=B+HF Corr=LYP ExCW=0 ScaHFX=  0.200000
 ScaDFX=  0.800000  0.720000  1.000000  0.810000
 IRadAn=      0 IRanWt=     -1 IRanGd=            0 ICorTp=0
 NAtoms=   15 NActive=   15 NUniq=   15 SFac= 7.50D-01 NAtFMM=   80 NAOKFM=F Big=F
 Leave Link  301 at Fri May 29 11:41:29 2020, MaxMem= 2621440000 cpu:       0.1
 (Enter /home/yoelvis/bin/g03/l302.exe)
 NPDir=0 NMtPBC=     1 NCelOv=     1 NCel=       1 NClECP=     1 NCelD=      1
         NCelK=      1 NCelE2=     1 NClLst=     1 CellRange=     0.0.
 One-electron integrals computed using PRISM.
 NBasis=    43 RedAO= T  NBF=    43
 NBsUse=    43 1.00D-06 NBFU=    43
 Precomputing XC quadrature grid using
 IXCGrd= 2 IRadAn=           0 IRanWt=          -1 IRanGd=           0.
 NRdTot=     932 NPtTot=      118162 NUsed=      124747 NTot=      124779
 NSgBfM=    43    43    43    43.
 Leave Link  302 at Fri May 29 11:41:40 2020, MaxMem= 2621440000 cpu:       0.6
 (Enter /home/yoelvis/bin/g03/l308.exe)
 Leave Link  308 at Fri May 29 11:41:51 2020, MaxMem= 2621440000 cpu:       0.0
 (Enter /home/yoelvis/bin/g03/l303.exe)
 DipDrv:  MaxL=1.
 Leave Link  303 at Fri May 29 11:42:02 2020, MaxMem= 2621440000 cpu:       0.0
 (Enter /home/yoelvis/bin/g03/l307.exe)
 Leave Link  307 at Fri May 29 11:42:14 2020, MaxMem= 2621440000 cpu:       0.0
 (Enter /home/yoelvis/bin/g03/l401.exe)
 Harris functional with IExCor=  402 diagonalized for initial guess.
 ExpMin= 1.69D-01 ExpMax= 7.16D+01 ExpMxC= 7.16D+01 IAcc=1 IRadAn=         1 AccDes= 1.00D-06
 HarFok:  IExCor= 402 AccDes= 1.00D-06 IRadAn=         1 IDoV=1
 ScaDFX=  1.000000  1.000000  1.000000  1.000000
 Harris En= -267.768326394461    
 Leave Link  401 at Fri May 29 11:42:25 2020, MaxMem= 2621440000 cpu:       0.4
 (Enter /home/yoelvis/bin/g03/l502.exe)
 Closed shell SCF:
 Requested convergence on RMS density matrix=1.00D-08 within 500 cycles.
 Requested convergence on MAX density matrix=1.00D-06.
 Requested convergence on             energy=1.00D-06.
 No special actions if energy rises.
 Using DIIS extrapolation, IDIIS=  1040.
 Two-electron integral symmetry not used.
       124746 words used for storage of precomputed grid.
 Keep R1 integrals in memory in canonical form, NReq=     2492080.
 IEnd=    384283 IEndB=    384283 NGot=2621440000 MDV=2620860665
 LenX=2620860665
 Symmetry not used in FoFDir.
 MinBra= 0 MaxBra= 1 Meth= 1.
 IRaf=       0 NMat=   1 IRICut=       1 DoRegI=T DoRafI=F ISym2E= 0 JSym2E=0.
 Integral accuracy reduced to 1.0D-05 until final iterations.

 Cycle   1  Pass 0  IDiag  1:
 E= -268.188299554125    
 DIIS: error= 2.65D-02 at cycle   1 NSaved=   1.
 NSaved= 1 IEnMin= 1 EnMin= -268.188299554125     IErMin= 1 ErrMin= 2.65D-02
 ErrMax= 2.65D-02 EMaxC= 1.00D-01 BMatC= 4.96D-02 BMatP= 4.96D-02
 IDIUse=3 WtCom= 7.35D-01 WtEn= 2.65D-01
 Coeff-Com:  0.100D+01
 Coeff-En:   0.100D+01
 Coeff:      0.100D+01
 Gap=     0.284 Goal=   None    Shift=    0.000
 GapD=    0.284 DampG=1.000 DampE=0.500 DampFc=0.5000 IDamp=-1.
 Damping current iteration by 5.00D-01
 RMSDP=1.27D-02 MaxDP=1.29D-01              OVMax= 0.00D+00

 Cycle   2  Pass 0  IDiag  1:
 E= -268.227284452123     Delta-E=       -0.038984897998 Rises=F Damp=T
 DIIS: error= 6.06D-03 at cycle   2 NSaved=   2.
 NSaved= 2 IEnMin= 2 EnMin= -268.227284452123     IErMin= 2 ErrMin= 6.06D-03
 ErrMax= 6.06D-03 EMaxC= 1.00D-01 BMatC= 2.40D-03 BMatP= 4.96D-02
 IDIUse=3 WtCom= 9.39D-01 WtEn= 6.06D-02
 Coeff-Com: -0.225D+00 0.122D+01
 Coeff-En:   0.000D+00 0.100D+01
 Coeff:     -0.211D+00 0.121D+01
 Gap=     0.278 Goal=   None    Shift=    0.000
 RMSDP=1.95D-03 MaxDP=1.68D-02 DE=-3.90D-02 OVMax= 0.00D+00

 Cycle   3  Pass 0  IDiag  1:
 E= -268.258349204251     Delta-E=       -0.031064752128 Rises=F Damp=F
 DIIS: error= 2.39D-03 at cycle   3 NSaved=   3.
 NSaved= 3 IEnMin= 3 EnMin= -268.258349204251     IErMin= 3 ErrMin= 2.39D-03
 ErrMax= 2.39D-03 EMaxC= 1.00D-01 BMatC= 2.66D-04 BMatP= 2.40D-03
 IDIUse=3 WtCom= 9.76D-01 WtEn= 2.39D-02
 Coeff-Com: -0.847D-01 0.425D+00 0.660D+00
 Coeff-En:   0.000D+00 0.000D+00 0.100D+01
 Coeff:     -0.827D-01 0.415D+00 0.668D+00
 Gap=     0.278 Goal=   None    Shift=    0.000
 RMSDP=7.09D-04 MaxDP=1.22D-02 DE=-3.11D-02 OVMax= 0.00D+00

 Cycle   4  Pass 0  IDiag  1:
 E= -268.258602344199     Delta-E=       -0.000253139948 Rises=F Damp=F
 DIIS: error= 1.70D-03 at cycle   4 NSaved=   4.
 NSaved= 4 IEnMin= 4 EnMin= -268.258602344199     IErMin= 4 ErrMin= 1.70D-03
 ErrMax= 1.70D-03 EMaxC= 1.00D-01 BMatC= 6.06D-05 BMatP= 2.66D-04
 IDIUse=3 WtCom= 9.83D-01 WtEn= 1.70D-02
 Coeff-Com: -0.145D-01 0.662D-01 0.332D+00 0.616D+00
 Coeff-En:   0.000D+00 0.000D+00 0.164D+00 0.836D+00
 Coeff:     -0.142D-01 0.650D-01 0.329D+00 0.620D+00
 Gap=     0.277 Goal=   None    Shift=    0.000
 RMSDP=2.96D-04 MaxDP=5.88D-03 DE=-2.53D-04 OVMax= 0.00D+00

 Cycle   5  Pass 0  IDiag  1:
 E= -268.258671853864     Delta-E=       -0.000069509666 Rises=F Damp=F
 DIIS: error= 5.45D-04 at cycle   5 NSaved=   5.
 NSaved= 5 IEnMin= 5 EnMin= -268.258671853864     IErMin= 5 ErrMin= 5.45D-04
 ErrMax= 5.45D-04 EMaxC= 1.00D-01 BMatC= 6.49D-06 BMatP= 6.06D-05
 IDIUse=3 WtCom= 9.95D-01 WtEn= 5.45D-03
 Coeff-Com: -0.128D-02 0.348D-02 0.128D+00 0.339D+00 0.530D+00
 Coeff-En:   0.000D+00 0.000D+00 0.000D+00 0.298D-01 0.970D+00
 Coeff:     -0.128D-02 0.346D-02 0.128D+00 0.338D+00 0.532D+00
 Gap=     0.278 Goal=   None    Shift=    0.000
 RMSDP=8.66D-05 MaxDP=1.22D-03 DE=-6.95D-05 OVMax= 0.00D+00

 Cycle   6  Pass 0  IDiag  1:
 E= -268.258680610414     Delta-E=       -0.000008756549 Rises=F Damp=F
 DIIS: error= 8.53D-05 at cycle   6 NSaved=   6.
 NSaved= 6 IEnMin= 6 EnMin= -268.258680610414     IErMin= 6 ErrMin= 8.53D-05
 ErrMax= 8.53D-05 EMaxC= 1.00D-01 BMatC= 1.20D-07 BMatP= 6.49D-06
 IDIUse=1 WtCom= 1.00D+00 WtEn= 0.00D+00
 Coeff-Com: -0.443D-03 0.778D-03 0.607D-01 0.165D+00 0.275D+00 0.500D+00
 Coeff:     -0.443D-03 0.778D-03 0.607D-01 0.165D+00 0.275D+00 0.500D+00
 Gap=     0.278 Goal=   None    Shift=    0.000
 RMSDP=1.33D-05 MaxDP=1.92D-04 DE=-8.76D-06 OVMax= 0.00D+00

 Cycle   7  Pass 0  IDiag  1:
 E= -268.258680765697     Delta-E=       -0.000000155283 Rises=F Damp=F
 DIIS: error= 2.10D-05 at cycle   7 NSaved=   7.
 NSaved= 7 IEnMin= 7 EnMin= -268.258680765697     IErMin= 7 ErrMin= 2.10D-05
 ErrMax= 2.10D-05 EMaxC= 1.00D-01 BMatC= 7.21D-09 BMatP= 1.20D-07
 IDIUse=1 WtCom= 1.00D+00 WtEn= 0.00D+00
 Coeff-Com: -0.192D-04-0.782D-04 0.610D-02 0.177D-01 0.355D-01 0.220D+00
 Coeff-Com:  0.720D+00
 Coeff:     -0.192D-04-0.782D-04 0.610D-02 0.177D-01 0.355D-01 0.220D+00
 Coeff:      0.720D+00
 Gap=     0.278 Goal=   None    Shift=    0.000
 RMSDP=2.78D-06 MaxDP=3.79D-05 DE=-1.55D-07 OVMax= 0.00D+00

 Initial convergence to 1.0D-05 achieved.  Increase integral accuracy.
 Cycle   8  Pass 1  IDiag  1:
 E= -268.258604121477     Delta-E=        0.000076644220 Rises=F Damp=F
 DIIS: error= 1.17D-05 at cycle   1 NSaved=   1.
 NSaved= 1 IEnMin= 1 EnMin= -268.258604121477     IErMin= 1 ErrMin= 1.17D-05
 ErrMax= 1.17D-05 EMaxC= 1.00D-01 BMatC= 2.15D-09 BMatP= 2.15D-09
 IDIUse=1 WtCom= 1.00D+00 WtEn= 0.00D+00
 Coeff-Com:  0.100D+01
 Coeff:      0.100D+01
 Gap=     0.278 Goal=   None    Shift=    0.000
 RMSDP=2.78D-06 MaxDP=3.79D-05 DE= 7.66D-05 OVMax= 0.00D+00

 Cycle   9  Pass 1  IDiag  1:
 E= -268.258604125635     Delta-E=       -0.000000004158 Rises=F Damp=F
 DIIS: error= 2.12D-06 at cycle   2 NSaved=   2.
 NSaved= 2 IEnMin= 2 EnMin= -268.258604125635     IErMin= 2 ErrMin= 2.12D-06
 ErrMax= 2.12D-06 EMaxC= 1.00D-01 BMatC= 2.12D-10 BMatP= 2.15D-09
 IDIUse=1 WtCom= 1.00D+00 WtEn= 0.00D+00
 Coeff-Com:  0.109D+00 0.891D+00
 Coeff:      0.109D+00 0.891D+00
 Gap=     0.278 Goal=   None    Shift=    0.000
 RMSDP=8.98D-07 MaxDP=1.67D-05 DE=-4.16D-09 OVMax= 0.00D+00

 Cycle  10  Pass 1  IDiag  1:
 E= -268.258604125568     Delta-E=        0.000000000067 Rises=F Damp=F
 DIIS: error= 2.21D-06 at cycle   3 NSaved=   3.
 NSaved= 3 IEnMin= 2 EnMin= -268.258604125635     IErMin= 2 ErrMin= 2.12D-06
 ErrMax= 2.21D-06 EMaxC= 1.00D-01 BMatC= 2.60D-10 BMatP= 2.12D-10
 IDIUse=1 WtCom= 1.00D+00 WtEn= 0.00D+00
 Coeff-Com: -0.213D-01 0.532D+00 0.489D+00
 Coeff:     -0.213D-01 0.532D+00 0.489D+00
 Gap=     0.278 Goal=   None    Shift=    0.000
 RMSDP=5.08D-07 MaxDP=9.51D-06 DE= 6.73D-11 OVMax= 0.00D+00

 Cycle  11  Pass 1  IDiag  1:
 E= -268.258604125901     Delta-E=       -0.000000000334 Rises=F Damp=F
 DIIS: error= 3.62D-07 at cycle   4 NSaved=   4.
 NSaved= 4 IEnMin= 4 EnMin= -268.258604125901     IErMin= 4 ErrMin= 3.62D-07
 ErrMax= 3.62D-07 EMaxC= 1.00D-01 BMatC= 3.52D-12 BMatP= 2.12D-10
 IDIUse=1 WtCom= 1.00D+00 WtEn= 0.00D+00
 Coeff-Com: -0.121D-01 0.258D+00 0.251D+00 0.503D+00
 Coeff:     -0.121D-01 0.258D+00 0.251D+00 0.503D+00
 Gap=     0.278 Goal=   None    Shift=    0.000
 RMSDP=7.42D-08 MaxDP=1.27D-06 DE=-3.34D-10 OVMax= 0.00D+00

 Cycle  12  Pass 1  IDiag  1:
 E= -268.258604125904     Delta-E=       -0.000000000003 Rises=F Damp=F
 DIIS: error= 7.95D-08 at cycle   5 NSaved=   5.
 NSaved= 5 IEnMin= 5 EnMin= -268.258604125904     IErMin= 5 ErrMin= 7.95D-08
 ErrMax= 7.95D-08 EMaxC= 1.00D-01 BMatC= 2.41D-13 BMatP= 3.52D-12
 IDIUse=1 WtCom= 1.00D+00 WtEn= 0.00D+00
 Coeff-Com: -0.311D-02 0.535D-01 0.569D-01 0.239D+00 0.654D+00
 Coeff:     -0.311D-02 0.535D-01 0.569D-01 0.239D+00 0.654D+00
 Gap=     0.278 Goal=   None    Shift=    0.000
 RMSDP=1.70D-08 MaxDP=2.59D-07 DE=-2.73D-12 OVMax= 0.00D+00

 Cycle  13  Pass 1  IDiag  1:
 E= -268.258604125907     Delta-E=       -0.000000000003 Rises=F Damp=F
 DIIS: error= 1.13D-08 at cycle   6 NSaved=   6.
 NSaved= 6 IEnMin= 6 EnMin= -268.258604125907     IErMin= 6 ErrMin= 1.13D-08
 ErrMax= 1.13D-08 EMaxC= 1.00D-01 BMatC= 5.30D-15 BMatP= 2.41D-13
 IDIUse=1 WtCom= 1.00D+00 WtEn= 0.00D+00
 Coeff-Com:  0.309D-04-0.339D-02-0.147D-02 0.364D-01 0.185D+00 0.783D+00
 Coeff:      0.309D-04-0.339D-02-0.147D-02 0.364D-01 0.185D+00 0.783D+00
 Gap=     0.278 Goal=   None    Shift=    0.000
 RMSDP=2.91D-09 MaxDP=3.13D-08 DE=-2.73D-12 OVMax= 0.00D+00

 SCF Done:  E(RB+HF-LYP) =  -268.258604126     A.U. after   13 cycles
             Convg  =    0.2905D-08             -V/T =  2.0169
             S**2   =   0.0000
 KE= 2.638007363823D+02 PE=-1.157677967629D+03 EE= 3.567484641130D+02
 Leave Link  502 at Fri May 29 11:42:38 2020, MaxMem= 2621440000 cpu:       8.4
 (Enter /home/yoelvis/bin/g03/l801.exe)
 ExpMin= 1.69D-01 ExpMax= 7.16D+01 ExpMxC= 7.16D+01 IAcc=1 IRadAn=         1 AccDes= 1.00D-06
 HarFok:  IExCor= 205 AccDes= 1.00D-06 IRadAn=         1 IDoV=1
 ScaDFX=  1.000000  1.000000  1.000000  1.000000
 Largest valence mixing into a core orbital is  2.20D-04
 Largest core mixing into a valence orbital is  2.45D-04
 Range of M.O.s used for correlation:     8    43
 NBasis=    43 NAE=    25 NBE=    25 NFC=     7 NFV=     0
 NROrb=     36 NOA=    18 NOB=    18 NVA=    18 NVB=    18
 Leave Link  801 at Fri May 29 11:42:49 2020, MaxMem= 2621440000 cpu:       0.1
 (Enter /home/yoelvis/bin/g03/l914.exe)
 RHF ground state
 MDV=2621440000 DFT=T DoStab=F Mixed=T DoRPA=T DoScal=F NonHer=T
 R1, R2, and R3 integrals will be kept in memory, NReq=     2143793.
 Symmetry not used in FoFDir.
 MinBra= 0 MaxBra= 1 Meth= 1.
 IRaf=       0 NMat=   1 IRICut=       1 DoRegI=T DoRafI=F ISym2E= 0 JSym2E=0.
 Making orbital integer symmetry assigments:
    24 initial guesses have been made.
 Convergence on wavefunction:    0.001000000000000
 Davidson Disk Diagonalization:  ConvIn= 1.00D-03 SkipCon=T Conv= 1.00D-03.
 Max sub-space:   200 roots to seek:    24 dimension of matrix:    648
 Iteration     1 Dimension    24 NMult    24
 CISAX:  IP=  4 NPass=   1 NMax=  24.
 CISAX will form  24 AO SS matrices at one time.
 NMat= 24 NSing= 24.
 CISAX:  IP=  4 NPass=   1 NMax=  24.
 CISAX will form  24 AO SS matrices at one time.
 NMat= 24 NSing= 24.
 New state      1 was old state      2
 New state      2 was old state      1
 New state      3 was old state      5
 New state      4 was old state      6
 Excitation Energies [eV] at current iteration:
 Root      1 :     6.325712224248262
 Root      2 :     8.666442895369446
 Root      3 :     8.971577573141374
 Root      4 :     9.093742227567549
 Root      5 :     9.123941621148038
 Root      6 :     9.166366217468177
 Iteration     2 Dimension    36 NMult    36
 CISAX:  IP=  1 NPass=   1 NMax=  12.
 CISAX will form  12 AO SS matrices at one time.
 NMat= 12 NSing= 12.
 CISAX:  IP=  1 NPass=   1 NMax=  12.
 CISAX will form  12 AO SS matrices at one time.
 NMat= 12 NSing= 12.
 Root      1 not converged, maximum delta is    0.007483620860399
 Root      2 not converged, maximum delta is    0.086945661095015
 Root      3 not converged, maximum delta is    0.030885129132251
 Root      4 not converged, maximum delta is    0.081560860882817
 Root      5 not converged, maximum delta is    0.074536108382829
 Root      6 not converged, maximum delta is    0.068594407417450
 Excitation Energies [eV] at current iteration:
 Root      1 :     6.311178737460600   Change is   -0.014533486787662
 Root      2 :     7.584654265214135   Change is   -1.081788630155311
 Root      3 :     8.915516517287282   Change is   -0.056061055854092
 Root      4 :     9.051069756846177   Change is   -0.042672470721372
 Root      5 :     9.080453910577234   Change is   -0.043487710570804
 Root      6 :     9.129813387130254   Change is   -0.036552830337923
 Iteration     3 Dimension    48 NMult    48
 CISAX:  IP=  1 NPass=   1 NMax=  12.
 CISAX will form  12 AO SS matrices at one time.
 NMat= 12 NSing= 12.
 CISAX:  IP=  1 NPass=   1 NMax=  12.
 CISAX will form  12 AO SS matrices at one time.
 NMat= 12 NSing= 12.
 Root      1 has converged.
 Root      2 not converged, maximum delta is    0.007740397037231
 No map to state      3
 New state      4 was old state      3
 Root      4 not converged, maximum delta is    0.619450788531238
 New state      5 was old state      4
 Root      5 not converged, maximum delta is    0.557473795072687
 New state      6 was old state      4
 Root      6 not converged, maximum delta is    0.523855871719405
 Excitation Energies [eV] at current iteration:
 Root      1 :     6.311079191898555   Change is   -0.000099545562045
 Root      2 :     7.571544168429913   Change is   -0.013110096784222
 Root      3 :     8.804792751688924
 Root      4 :     8.915192644955455   Change is   -0.000323872331827
 Root      5 :     8.946895817698410   Change is   -0.104173939147768
 Root      6 :     9.053846012854239   Change is    0.002776256008061
 Iteration     4 Dimension    58 NMult    58
 CISAX:  IP=  1 NPass=   1 NMax=  10.
 CISAX will form  10 AO SS matrices at one time.
 NMat= 10 NSing= 10.
 CISAX:  IP=  1 NPass=   1 NMax=  10.
 CISAX will form  10 AO SS matrices at one time.
 NMat= 10 NSing= 10.
 Root      1 has converged.
 Root      2 has converged.
 New state      3 was old state      5
 Root      3 not converged, maximum delta is    0.195416234643712
 New state      4 was old state      3
 Root      4 not converged, maximum delta is    0.187448370155389
 New state      5 was old state      4
 Root      5 not converged, maximum delta is    0.013843991303844
 Root      6 not converged, maximum delta is    0.054566436337404
 Excitation Energies [eV] at current iteration:
 Root      1 :     6.311078872107284   Change is   -0.000000319791270
 Root      2 :     7.571320459659440   Change is   -0.000223708770472
 Root      3 :     8.679851005613321   Change is   -0.267044812085089
 Root      4 :     8.702478369784465   Change is   -0.102314381904458
 Root      5 :     8.915193982608493   Change is    0.000001337653038
 Root      6 :     9.051149944791607   Change is   -0.002696068062631
 Iteration     5 Dimension    66 NMult    66
 CISAX:  IP=  1 NPass=   1 NMax=   8.
 CISAX will form   8 AO SS matrices at one time.
 NMat=  8 NSing=  8.
 CISAX:  IP=  1 NPass=   1 NMax=   8.
 CISAX will form   8 AO SS matrices at one time.
 NMat=  8 NSing=  8.
 Root      1 has converged.
 Root      2 has converged.
 Root      3 not converged, maximum delta is    0.033871522843440
 Root      4 not converged, maximum delta is    0.034319979830320
 Root      5 has converged.
 Root      6 has converged.
 Excitation Energies [eV] at current iteration:
 Root      1 :     6.311078749837342   Change is   -0.000000122269943
 Root      2 :     7.571318465271010   Change is   -0.000001994388431
 Root      3 :     8.673487800120068   Change is   -0.006363205493254
 Root      4 :     8.699922144591786   Change is   -0.002556225192679
 Root      5 :     8.915193653562550   Change is   -0.000000329045942
 Root      6 :     9.051128721285894   Change is   -0.000021223505714
 Iteration     6 Dimension    70 NMult    70
 CISAX:  IP=  1 NPass=   1 NMax=   4.
 CISAX will form   4 AO SS matrices at one time.
 NMat=  4 NSing=  4.
 CISAX:  IP=  1 NPass=   1 NMax=   4.
 CISAX will form   4 AO SS matrices at one time.
 NMat=  4 NSing=  4.
 Root      1 has converged.
 Root      2 has converged.
 Root      3 has converged.
 Root      4 has converged.
 Root      5 has converged.
 Root      6 has converged.
 Excitation Energies [eV] at current iteration:
 Root      1 :     6.311078704910347   Change is   -0.000000044926994
 Root      2 :     7.571318195553281   Change is   -0.000000269717728
 Root      3 :     8.673196761924217   Change is   -0.000291038195850
 Root      4 :     8.699831743389145   Change is   -0.000090401202641
 Root      5 :     8.915193645142988   Change is   -0.000000008419562
 Root      6 :     9.051127642928902   Change is   -0.000001078356992
 Convergence achieved on expansion vectors.
 ***********************************************************************
 Excited states from <AA,BB:AA,BB> singles matrix:
 ***********************************************************************
 
 1PDM for each excited state written to RWF  633
 Ground to excited state Transition electric dipole moments (Au):
       state          X           Y           Z          Osc.
         1        -0.0110     -0.0345      0.0000      0.0002
         2        -0.4140     -0.0259     -0.0159      0.0320
         3         1.7907      0.5025      0.0085      0.7350
         4         0.6254     -1.5489      0.0037      0.5947
         5        -0.0036      0.0229      0.0167      0.0002
         6        -0.0426      0.0021     -0.0098      0.0004
 Ground to excited state transition velocity dipole Moments (Au):
       state          X           Y           Z          Osc.
         1         0.0021      0.0044      0.0000      0.0001
         2         0.0766      0.0038      0.0042      0.0141
         3        -0.3668     -0.0993     -0.0033      0.3020
         4        -0.1260      0.3108     -0.0013      0.2346
         5         0.0009     -0.0050     -0.0036      0.0001
         6         0.0108     -0.0004      0.0072      0.0003
 Ground to excited state transition magnetic dipole Moments (Au):
       state          X           Y           Z
         1        -0.0012     -0.0002     -0.0410
         2         0.0004     -0.0172     -0.0574
         3        -0.0015      0.0200      0.1698
         4         0.0023      0.0070     -0.4000
         5         0.0969      0.0014     -0.0107
         6        -0.0030     -0.1218      0.0017
 <0|del|b> * <b|rxdel|0>  (Au), Rotatory Strengths (R) in
 cgs (10**-40 erg-esu-cm/Gauss)
       state          X           Y           Z     R(velocity)
         1         0.0000      0.0000      0.0000     -0.0034
         2         0.0000     -0.0001     -0.0002     -0.2350
         3         0.0006     -0.0020     -0.0006     -1.4745
         4        -0.0003      0.0022      0.0005      1.7709
         5         0.0001      0.0000      0.0000      0.0855
         6         0.0000      0.0000      0.0000      0.0214
 <0|r|b> * <b|rxdel|0>  (Au), Rotatory Strengths (R) in
 cgs (10**-40 erg-esu-cm/Gauss)
       state          X           Y           Z     R(length)
         1         0.0000      0.0000      0.0000     -0.0045
         2        -0.0002      0.0004      0.0009     -0.2833
         3        -0.0027      0.0101      0.0014     -2.0746
         4         0.0014     -0.0108     -0.0015      2.5530
         5        -0.0003      0.0000     -0.0002      0.1162
         6         0.0001     -0.0003      0.0000      0.0341
  <0|del|b> * <b|r|0>  (Au)
       state          X           Y           Z       Osc.(frdel)
         1         0.0000     -0.0002      0.0000      0.0001
         2        -0.0317     -0.0001     -0.0001      0.0213
         3        -0.6567     -0.0499      0.0000      0.4711
         4        -0.0788     -0.4814      0.0000      0.3735
         5         0.0000     -0.0001     -0.0001      0.0001
         6        -0.0005      0.0000     -0.0001      0.0004
 Ground to excited state transition densities written to RWF  633

 Excitation energies and oscillator strengths:
 
 Excited state symmetry could not be determined.
 Excited State   1:   Singlet-?Sym    6.3111 eV  196.45 nm  f=0.0002
      24 -> 26        -0.48708
      24 -> 27         0.12550
      25 -> 26         0.13397
      25 -> 27         0.49909
 This state for optimization and/or second-order correction.
 Total Energy, E(RPA) =  -268.026676238    
 Copying the excited state density for this state as the 1-particle RhoCI density.
 
 Excited state symmetry could not be determined.
 Excited State   2:   Singlet-?Sym    7.5713 eV  163.76 nm  f=0.0320
      24 -> 26         0.10549
      24 -> 27         0.37606
      25 -> 26         0.49794
      25 -> 27        -0.12599
 
 Excited state symmetry could not be determined.
 Excited State   3:   Singlet-?Sym    8.6732 eV  142.95 nm  f=0.7350
      24 -> 27         0.47439
      25 -> 26        -0.34524
 
 Excited state symmetry could not be determined.
 Excited State   4:   Singlet-?Sym    8.6998 eV  142.51 nm  f=0.5947
      24 -> 26         0.42476
      25 -> 27         0.40346
 
 Excited state symmetry could not be determined.
 Excited State   5:   Singlet-?Sym    8.9152 eV  139.07 nm  f=0.0002
      22 -> 26        -0.14434
      22 -> 27        -0.20725
      23 -> 26         0.64123
      23 -> 27        -0.13920
 
 Excited state symmetry could not be determined.
 Excited State   6:   Singlet-?Sym    9.0511 eV  136.98 nm  f=0.0004
      22 -> 26        -0.33537
      23 -> 27         0.60226
 Leave Link  914 at Fri May 29 11:43:11 2020, MaxMem= 2621440000 cpu:      41.0
 (Enter /home/yoelvis/bin/g03/l601.exe)
 Copying SCF densities to generalized density rwf, ISCF=0 IROHF=0.

 **********************************************************************

            Population analysis using the SCF density.

 **********************************************************************

 Alpha  occ. eigenvalues --  -10.02918 -10.02411 -10.01164 -10.01141 -10.01019
 Alpha  occ. eigenvalues --  -10.00902 -10.00892  -0.81723  -0.73815  -0.70696
 Alpha  occ. eigenvalues --   -0.65643  -0.57020  -0.55070  -0.47971  -0.42511
 Alpha  occ. eigenvalues --   -0.42212  -0.39883  -0.38388  -0.37382  -0.35803
 Alpha  occ. eigenvalues --   -0.31320  -0.30322  -0.30068  -0.20118  -0.19443
 Alpha virt. eigenvalues --    0.08308   0.08551   0.24479   0.33713   0.37277
 Alpha virt. eigenvalues --    0.38971   0.42554   0.44492   0.44752   0.46113
 Alpha virt. eigenvalues --    0.47269   0.47925   0.58094   0.58872   0.60149
 Alpha virt. eigenvalues --    0.61209   0.75802   0.80527
          Condensed to atoms (all electrons):
              1          2          3          4          5          6
     1  C    4.770218   0.383196  -0.027732   0.000855   0.000017   0.000870
     2  C    0.383196   4.784994   0.500694  -0.027794  -0.011301  -0.027831
     3  C   -0.027732   0.500694   4.813783   0.507349  -0.029613  -0.012213
     4  C    0.000855  -0.027794   0.507349   4.798536   0.503079  -0.030425
     5  C    0.000017  -0.011301  -0.029613   0.503079   4.800939   0.505262
     6  C    0.000870  -0.027831  -0.012213  -0.030425   0.505262   4.798841
     7  C   -0.027877   0.503688  -0.032115  -0.012265  -0.029577   0.504755
     8  H    0.378606  -0.019800  -0.003162   0.000017   0.000002  -0.000021
     9  H    0.381186  -0.019765   0.001295  -0.000022   0.000000   0.000039
    10  H   -0.003514  -0.026255   0.390503  -0.025811   0.001471   0.000045
    11  H   -0.000016   0.001415  -0.025635   0.391590  -0.025446   0.001483
    12  H    0.000001   0.000034   0.001449  -0.025282   0.391886  -0.025312
    13  H   -0.000016   0.001410   0.000036   0.001486  -0.025452   0.391600
    14  H   -0.003909  -0.026283   0.001484   0.000046   0.001465  -0.025752
    15  H    0.375520  -0.020235  -0.001573  -0.000004   0.000003  -0.000019
              7          8          9         10         11         12
     1  C   -0.027877   0.378606   0.381186  -0.003514  -0.000016   0.000001
     2  C    0.503688  -0.019800  -0.019765  -0.026255   0.001415   0.000034
     3  C   -0.032115  -0.003162   0.001295   0.390503  -0.025635   0.001449
     4  C   -0.012265   0.000017  -0.000022  -0.025811   0.391590  -0.025282
     5  C   -0.029577   0.000002   0.000000   0.001471  -0.025446   0.391886
     6  C    0.504755  -0.000021   0.000039   0.000045   0.001483  -0.025312
     7  C    4.812158   0.000966  -0.004573   0.001490   0.000037   0.001453
     8  H    0.000966   0.600680  -0.020506   0.000383  -0.000001   0.000000
     9  H   -0.004573  -0.020506   0.600211   0.000025   0.000000   0.000000
    10  H    0.001490   0.000383   0.000025   0.589883  -0.003930  -0.000035
    11  H    0.000037  -0.000001   0.000000  -0.003930   0.583573  -0.003679
    12  H    0.001453   0.000000   0.000000  -0.000035  -0.003679   0.582105
    13  H   -0.025554   0.000000  -0.000002   0.000002  -0.000036  -0.003706
    14  H    0.390685   0.000037   0.000779  -0.000038   0.000002  -0.000035
    15  H    0.000226  -0.021170  -0.020921   0.000171   0.000000   0.000000
             13         14         15
     1  C   -0.000016  -0.003909   0.375520
     2  C    0.001410  -0.026283  -0.020235
     3  C    0.000036   0.001484  -0.001573
     4  C    0.001486   0.000046  -0.000004
     5  C   -0.025452   0.001465   0.000003
     6  C    0.391600  -0.025752  -0.000019
     7  C   -0.025554   0.390685   0.000226
     8  H    0.000000   0.000037  -0.021170
     9  H   -0.000002   0.000779  -0.020921
    10  H    0.000002  -0.000038   0.000171
    11  H   -0.000036   0.000002   0.000000
    12  H   -0.003706  -0.000035   0.000000
    13  H    0.583133  -0.003894   0.000000
    14  H   -0.003894   0.588623   0.000066
    15  H    0.000000   0.000066   0.612209
 Mulliken atomic charges:
              1
     1  C   -0.227404
     2  C    0.003830
     3  C   -0.084550
     4  C   -0.081356
     5  C   -0.082735
     6  C   -0.081322
     7  C   -0.083496
     8  H    0.083968
     9  H    0.082252
    10  H    0.075610
    11  H    0.080643
    12  H    0.081121
    13  H    0.080992
    14  H    0.076723
    15  H    0.075726
 Sum of Mulliken charges=   0.00000
 Atomic charges with hydrogens summed into heavy atoms:
              1
     1  C    0.014541
     2  C    0.003830
     3  C   -0.008940
     4  C   -0.000713
     5  C   -0.001614
     6  C   -0.000330
     7  C   -0.006774
     8  H    0.000000
     9  H    0.000000
    10  H    0.000000
    11  H    0.000000
    12  H    0.000000
    13  H    0.000000
    14  H    0.000000
    15  H    0.000000
 Sum of Mulliken charges=   0.00000
 Electronic spatial extent (au):  <R**2>=   715.5169
 Charge=     0.0000 electrons
 Dipole moment (field-independent basis, Debye):
    X=     0.2078    Y=     0.0084    Z=    -0.0233  Tot=     0.2092
 Quadrupole moment (field-independent basis, Debye-Ang):
   XX=   -36.2124   YY=   -36.6142   ZZ=   -41.1272
   XY=    -0.0241   XZ=    -0.0635   YZ=     0.0134
 Traceless Quadrupole moment (field-independent basis, Debye-Ang):
   XX=     1.7722   YY=     1.3704   ZZ=    -3.1426
   XY=    -0.0241   XZ=    -0.0635   YZ=     0.0134
 Octapole moment (field-independent basis, Debye-Ang**2):
  XXX=    -2.9786  YYY=     0.4755  ZZZ=     0.3107  XYY=    -0.4489
  XXY=    -0.0444  XXZ=    -0.1770  XZZ=     2.0589  YZZ=    -0.3987
  YYZ=    -0.3745  XYZ=     0.0398
 Hexadecapole moment (field-independent basis, Debye-Ang**3):
 XXXX=  -568.3639 YYYY=  -265.8941 ZZZZ=   -40.1064 XXXY=    -0.1415
 XXXZ=    -0.7152 YYYX=     1.1851 YYYZ=     0.0224 ZZZX=     0.9330
 ZZZY=     0.0001 XXYY=  -136.0709 XXZZ=  -106.4707 YYZZ=   -57.4872
 XXYZ=     0.1333 YYXZ=    -1.0523 ZZXY=    -1.2074
 N-N= 2.688701630079D+02 E-N=-1.157677968687D+03  KE= 2.638007363823D+02
 Leave Link  601 at Fri May 29 11:43:22 2020, MaxMem= 2621440000 cpu:       0.0
 (Enter /home/yoelvis/bin/g03/l9999.exe)

 Test job not archived.
 1\1\GINC-COMET-11-59\SP\RTD-B3LYP-FC\STO-3G\C7H8\YOELVIS\29-May-2020\0
 \\#P b3lyp/STO-3G TD(NStates=6) SCFcyc=500 charge NoSymm\\Gaussian tem
 plate charges\\0,1\C,0,2.42828,0.001838,0.006083\C,0,0.915603,0.00443,
 -0.007524\C,0,0.197635,-1.20203,-0.005671\C,0,-1.19886,-1.208798,0.001
 33\C,0,-1.907868,-0.003065,0.005385\C,0,-1.206495,1.204683,0.001466\C,
 0,0.192215,1.204974,-0.005849\H,0,2.834884,-0.701703,-0.730361\H,0,2.8
 31835,0.994935,-0.21845\H,0,0.739711,-2.146071,-0.011235\H,0,-1.734149
 ,-2.155365,0.001091\H,0,-2.994936,-0.006384,0.0089\H,0,-1.746013,2.148
 821,0.001421\H,0,0.729092,2.151598,-0.01142\H,0,2.816521,-0.29802,0.98
 8731\\Version=AM64L-G03RevD.01\HF=-268.2586041\RMSD=2.905e-09\Thermal=
 0.\PG=C01 [X(C7H8)]\\@


 HO!  SUCH BUGS AND GOBLINS IN MY LIFE!

                            -- HAMLET, ACT 5, SCENE 2
 Job cpu time:  0 days  0 hours  3 minutes 15.1 seconds.
 File lengths (MBytes):  RWF=     27 Int=      0 D2E=      0 Chk=     10 Scr=      1
 Normal termination of Gaussian 03 at Fri May 29 11:43:33 2020.
