 Entering Gaussian System, Link 0=g03
 Input=PHE_batch_6.com
 Output=PHE_batch_6.log
 Initial command:
 /home/yoelvis/bin/g03/l1.exe /scratch/yoelvis/33721083/scr/Gau-4284.inp -scrdir=/scratch/yoelvis/33721083/scr/
 Entering Link 1 = /home/yoelvis/bin/g03/l1.exe PID=      4285.
  
 Copyright (c) 1988,1990,1992,1993,1995,1998,2003,2004, Gaussian, Inc.
                  All Rights Reserved.
  
 This is the Gaussian(R) 03 program.  It is based on the
 the Gaussian(R) 98 system (copyright 1998, Gaussian, Inc.),
 the Gaussian(R) 94 system (copyright 1995, Gaussian, Inc.),
 the Gaussian 92(TM) system (copyright 1992, Gaussian, Inc.),
 the Gaussian 90(TM) system (copyright 1990, Gaussian, Inc.),
 the Gaussian 88(TM) system (copyright 1988, Gaussian, Inc.),
 the Gaussian 86(TM) system (copyright 1986, Carnegie Mellon
 University), and the Gaussian 82(TM) system (copyright 1983,
 Carnegie Mellon University). Gaussian is a federally registered
 trademark of Gaussian, Inc.
  
 This software contains proprietary and confidential information,
 including trade secrets, belonging to Gaussian, Inc.
  
 This software is provided under written license and may be
 used, copied, transmitted, or stored only in accord with that
 written license.
  
 The following legend is applicable only to US Government
 contracts under FAR:
  
                    RESTRICTED RIGHTS LEGEND
  
 Use, reproduction and disclosure by the US Government is
 subject to restrictions as set forth in subparagraphs (a)
 and (c) of the Commercial Computer Software - Restricted
 Rights clause in FAR 52.227-19.
  
 Gaussian, Inc.
 340 Quinnipiac St., Bldg. 40, Wallingford CT 06492
  
  
 ---------------------------------------------------------------
 Warning -- This program may not be used in any manner that
 competes with the business of Gaussian, Inc. or will provide
 assistance to any competitor of Gaussian, Inc.  The licensee
 of this program is prohibited from giving any competitor of
 Gaussian, Inc. access to this program.  By using this program,
 the user acknowledges that Gaussian, Inc. is engaged in the
 business of creating and licensing software in the field of
 computational chemistry and represents and warrants to the
 licensee that it is not a competitor of Gaussian, Inc. and that
 it will not use this program in any manner prohibited above.
 ---------------------------------------------------------------
  

 Cite this work as:
 Gaussian 03, Revision D.01,
 M. J. Frisch, G. W. Trucks, H. B. Schlegel, G. E. Scuseria, 
 M. A. Robb, J. R. Cheeseman, J. A. Montgomery, Jr., T. Vreven, 
 K. N. Kudin, J. C. Burant, J. M. Millam, S. S. Iyengar, J. Tomasi, 
 V. Barone, B. Mennucci, M. Cossi, G. Scalmani, N. Rega, 
 G. A. Petersson, H. Nakatsuji, M. Hada, M. Ehara, K. Toyota, 
 R. Fukuda, J. Hasegawa, M. Ishida, T. Nakajima, Y. Honda, O. Kitao, 
 H. Nakai, M. Klene, X. Li, J. E. Knox, H. P. Hratchian, J. B. Cross, 
 V. Bakken, C. Adamo, J. Jaramillo, R. Gomperts, R. E. Stratmann, 
 O. Yazyev, A. J. Austin, R. Cammi, C. Pomelli, J. W. Ochterski, 
 P. Y. Ayala, K. Morokuma, G. A. Voth, P. Salvador, J. J. Dannenberg, 
 V. G. Zakrzewski, S. Dapprich, A. D. Daniels, M. C. Strain, 
 O. Farkas, D. K. Malick, A. D. Rabuck, K. Raghavachari, 
 J. B. Foresman, J. V. Ortiz, Q. Cui, A. G. Baboul, S. Clifford, 
 J. Cioslowski, B. B. Stefanov, G. Liu, A. Liashenko, P. Piskorz, 
 I. Komaromi, R. L. Martin, D. J. Fox, T. Keith, M. A. Al-Laham, 
 C. Y. Peng, A. Nanayakkara, M. Challacombe, P. M. W. Gill, 
 B. Johnson, W. Chen, M. W. Wong, C. Gonzalez, and J. A. Pople, 
 Gaussian, Inc., Wallingford CT, 2004.
 
 ******************************************
 Gaussian 03:  AM64L-G03RevD.01 13-Oct-2005
                29-May-2020 
 ******************************************
 %nproc=4
 Will use up to    4 processors via shared memory.
 %mem=20000MB
 ------------------------------------------------------
 #P b3lyp/STO-3G TD(NStates=6) SCFcyc=500 charge NoSymm
 ------------------------------------------------------
 1/18=10,28=-2,38=1/1;
 2/15=1,17=6,18=5,40=1/2;
 3/6=3,11=2,16=1,25=1,30=1,43=1,74=-5/1,2,8,3,7;
 4//1;
 5/5=2,7=500,38=5/2;
 8/6=1,10=1/1;
 9/41=6,42=1/14;
 6/7=2,8=2,9=2,10=2/1;
 99/5=1,9=1/99;
 Leave Link    1 at Fri May 29 11:32:57 2020, MaxMem= 2621440000 cpu:       0.1
 (Enter /home/yoelvis/bin/g03/l101.exe)
 -------------------------
 Gaussian template charges
 -------------------------
 Symbolic Z-matrix:
 Charge =  0 Multiplicity = 1
 C                     2.42828   0.00184   0.00608 
 C                     0.9156    0.00443  -0.00752 
 C                     0.19764  -1.20203  -0.00567 
 C                    -1.19886  -1.2088    0.00133 
 C                    -1.90787  -0.00307   0.00539 
 C                    -1.2065    1.20468   0.00147 
 C                     0.19222   1.20497  -0.00585 
 H                     2.83488  -0.7017   -0.73036 
 H                     2.83184   0.99494  -0.21845 
 H                     0.73971  -2.14607  -0.01124 
 H                    -1.73415  -2.15537   0.00109 
 H                    -2.99494  -0.00638   0.0089 
 H                    -1.74601   2.14882   0.00142 
 H                     0.72909   2.1516   -0.01142 
 H                     2.81652  -0.29802   0.98873 
 
                    Isotopes and Nuclear Properties:
 (Nuclear quadrupole moments (NQMom) in fm**2, nuclear magnetic moments (NMagM)
  in nuclear magnetons)

  Atom         1           2           3           4           5           6           7           8           9          10
 IAtWgt=          12          12          12          12          12          12          12           1           1           1
 AtmWgt=  12.0000000  12.0000000  12.0000000  12.0000000  12.0000000  12.0000000  12.0000000   1.0078250   1.0078250   1.0078250
 NucSpn=           0           0           0           0           0           0           0           1           1           1
 AtZEff=   0.0000000   0.0000000   0.0000000   0.0000000   0.0000000   0.0000000   0.0000000   0.0000000   0.0000000   0.0000000
 NQMom=    0.0000000   0.0000000   0.0000000   0.0000000   0.0000000   0.0000000   0.0000000   0.0000000   0.0000000   0.0000000
 NMagM=    0.0000000   0.0000000   0.0000000   0.0000000   0.0000000   0.0000000   0.0000000   2.7928460   2.7928460   2.7928460

  Atom        11          12          13          14          15
 IAtWgt=           1           1           1           1           1
 AtmWgt=   1.0078250   1.0078250   1.0078250   1.0078250   1.0078250
 NucSpn=           1           1           1           1           1
 AtZEff=   0.0000000   0.0000000   0.0000000   0.0000000   0.0000000
 NQMom=    0.0000000   0.0000000   0.0000000   0.0000000   0.0000000
 NMagM=    2.7928460   2.7928460   2.7928460   2.7928460   2.7928460
 Leave Link  101 at Fri May 29 11:33:02 2020, MaxMem= 2621440000 cpu:       0.1
 (Enter /home/yoelvis/bin/g03/l202.exe)
                          Input orientation:                          
 ---------------------------------------------------------------------
 Center     Atomic     Atomic              Coordinates (Angstroms)
 Number     Number      Type              X           Y           Z
 ---------------------------------------------------------------------
    1          6             0        2.428280    0.001838    0.006083
    2          6             0        0.915603    0.004430   -0.007524
    3          6             0        0.197635   -1.202030   -0.005671
    4          6             0       -1.198860   -1.208798    0.001330
    5          6             0       -1.907868   -0.003065    0.005385
    6          6             0       -1.206495    1.204683    0.001466
    7          6             0        0.192215    1.204974   -0.005849
    8          1             0        2.834884   -0.701703   -0.730361
    9          1             0        2.831835    0.994935   -0.218450
   10          1             0        0.739711   -2.146071   -0.011235
   11          1             0       -1.734149   -2.155365    0.001091
   12          1             0       -2.994936   -0.006384    0.008900
   13          1             0       -1.746013    2.148821    0.001421
   14          1             0        0.729092    2.151598   -0.011420
   15          1             0        2.816521   -0.298020    0.988731
 ---------------------------------------------------------------------
                    Distance matrix (angstroms):
                    1          2          3          4          5
     1  C    0.000000
     2  C    1.512740   0.000000
     3  C    2.534800   1.403933   0.000000
     4  C    3.823847   2.437818   1.396529   0.000000
     5  C    4.336151   2.823510   2.422970   1.398750   0.000000
     6  C    3.828635   2.438030   2.786377   2.413493   1.396637
     7  C    2.539225   1.401642   2.407010   2.785935   2.422774
     8  H    1.096652   2.169045   2.780393   4.130812   4.850063
     9  H    1.095223   2.167380   3.436705   4.599048   4.848803
    10  H    2.732230   2.157685   1.088619   2.153299   3.406233
    11  H    4.688216   3.418475   2.154224   1.087439   2.159304
    12  H    5.423223   3.910588   3.409148   2.161422   1.087079
    13  H    4.694069   3.417995   3.873760   3.401909   2.157968
    14  H    2.740258   2.155257   3.395482   3.874200   3.405351
    15  H    1.098291   2.167369   2.943575   4.234119   4.834648
                    6          7          8          9         10
     6  C    0.000000
     7  C    1.398729   0.000000
     8  H    4.527982   3.338268   0.000000
     9  H    4.049749   2.656484   1.772186   0.000000
    10  H    3.874975   3.395480   2.644445   3.779661   0.000000
    11  H    3.401226   3.873345   4.850177   5.551648   2.473908
    12  H    2.159921   3.409624   5.917497   5.916552   4.304214
    13  H    1.087417   2.155836   5.444778   4.726149   4.962366
    14  H    2.154834   1.088285   3.618365   2.408788   4.297682
    15  H    4.406525   3.183577   1.765949   1.768970   2.954381
                   11         12         13         14         15
    11  H    0.000000
    12  H    2.491539   0.000000
    13  H    4.304202   2.490938   0.000000
    14  H    4.961617   4.304147   2.475140   0.000000
    15  H    5.013358   5.900691   5.270534   3.370206   0.000000
 Symmetry turned off by external request.
 Stoichiometry    C7H8
 Framework group  C1[X(C7H8)]
 Deg. of freedom    39
 Full point group                 C1
 Rotational constants (GHZ):      5.5225639      2.5021768      1.7406439
 Leave Link  202 at Fri May 29 11:33:07 2020, MaxMem= 2621440000 cpu:       0.1
 (Enter /home/yoelvis/bin/g03/l301.exe)
 Standard basis: STO-3G (5D, 7F)
 Integral buffers will be    131072 words long.
 Raffenetti 2 integral format.
 Two-electron integral symmetry is turned off.
 Background charge distribution read from input stream:
 Point Charges:
 XYZ=    3.5961   -3.1888   -0.1200 Q=    0.1000 A=    0.0000 R=    0.0000 C=    0.0000
 Sum of input charges=            0.100000
              Moments=            0.679564           -0.602596           -0.022677
 Self energy of the charges =         0.0000000000
 MM   energy of the charges =         0.0000000000
 Nuclear-Charge attraction  =         0.5660435741
    43 basis functions,   129 primitive gaussians,    43 cartesian basis functions
    25 alpha electrons       25 beta electrons
       nuclear repulsion energy       268.3470963454 Hartrees.
 Nuclear repulsion after solvent point charges=      268.9131399195 Hartrees.
 IExCor= 402 DFT=T Ex=B+HF Corr=LYP ExCW=0 ScaHFX=  0.200000
 ScaDFX=  0.800000  0.720000  1.000000  0.810000
 IRadAn=      0 IRanWt=     -1 IRanGd=            0 ICorTp=0
 NAtoms=   15 NActive=   15 NUniq=   15 SFac= 7.50D-01 NAtFMM=   80 NAOKFM=F Big=F
 Leave Link  301 at Fri May 29 11:33:12 2020, MaxMem= 2621440000 cpu:       0.0
 (Enter /home/yoelvis/bin/g03/l302.exe)
 NPDir=0 NMtPBC=     1 NCelOv=     1 NCel=       1 NClECP=     1 NCelD=      1
         NCelK=      1 NCelE2=     1 NClLst=     1 CellRange=     0.0.
 One-electron integrals computed using PRISM.
 NBasis=    43 RedAO= T  NBF=    43
 NBsUse=    43 1.00D-06 NBFU=    43
 Precomputing XC quadrature grid using
 IXCGrd= 2 IRadAn=           0 IRanWt=          -1 IRanGd=           0.
 NRdTot=     932 NPtTot=      118162 NUsed=      124747 NTot=      124779
 NSgBfM=    43    43    43    43.
 Leave Link  302 at Fri May 29 11:33:17 2020, MaxMem= 2621440000 cpu:       0.6
 (Enter /home/yoelvis/bin/g03/l308.exe)
 Leave Link  308 at Fri May 29 11:33:22 2020, MaxMem= 2621440000 cpu:       0.0
 (Enter /home/yoelvis/bin/g03/l303.exe)
 DipDrv:  MaxL=1.
 Leave Link  303 at Fri May 29 11:33:27 2020, MaxMem= 2621440000 cpu:       0.0
 (Enter /home/yoelvis/bin/g03/l307.exe)
 Leave Link  307 at Fri May 29 11:33:32 2020, MaxMem= 2621440000 cpu:       0.0
 (Enter /home/yoelvis/bin/g03/l401.exe)
 Harris functional with IExCor=  402 diagonalized for initial guess.
 ExpMin= 1.69D-01 ExpMax= 7.16D+01 ExpMxC= 7.16D+01 IAcc=1 IRadAn=         1 AccDes= 1.00D-06
 HarFok:  IExCor= 402 AccDes= 1.00D-06 IRadAn=         1 IDoV=1
 ScaDFX=  1.000000  1.000000  1.000000  1.000000
 Harris En= -267.725349482912    
 Leave Link  401 at Fri May 29 11:33:37 2020, MaxMem= 2621440000 cpu:       0.4
 (Enter /home/yoelvis/bin/g03/l502.exe)
 Closed shell SCF:
 Requested convergence on RMS density matrix=1.00D-08 within 500 cycles.
 Requested convergence on MAX density matrix=1.00D-06.
 Requested convergence on             energy=1.00D-06.
 No special actions if energy rises.
 Using DIIS extrapolation, IDIIS=  1040.
 Two-electron integral symmetry not used.
       124746 words used for storage of precomputed grid.
 Keep R1 integrals in memory in canonical form, NReq=     2492080.
 IEnd=    384283 IEndB=    384283 NGot=2621440000 MDV=2620860665
 LenX=2620860665
 Symmetry not used in FoFDir.
 MinBra= 0 MaxBra= 1 Meth= 1.
 IRaf=       0 NMat=   1 IRICut=       1 DoRegI=T DoRafI=F ISym2E= 0 JSym2E=0.
 Integral accuracy reduced to 1.0D-05 until final iterations.

 Cycle   1  Pass 0  IDiag  1:
 E= -268.188275867929    
 DIIS: error= 2.66D-02 at cycle   1 NSaved=   1.
 NSaved= 1 IEnMin= 1 EnMin= -268.188275867929     IErMin= 1 ErrMin= 2.66D-02
 ErrMax= 2.66D-02 EMaxC= 1.00D-01 BMatC= 4.96D-02 BMatP= 4.96D-02
 IDIUse=3 WtCom= 7.34D-01 WtEn= 2.66D-01
 Coeff-Com:  0.100D+01
 Coeff-En:   0.100D+01
 Coeff:      0.100D+01
 Gap=     0.284 Goal=   None    Shift=    0.000
 GapD=    0.284 DampG=1.000 DampE=0.500 DampFc=0.5000 IDamp=-1.
 Damping current iteration by 5.00D-01
 RMSDP=1.27D-02 MaxDP=1.26D-01              OVMax= 0.00D+00

 Cycle   2  Pass 0  IDiag  1:
 E= -268.227280343661     Delta-E=       -0.039004475732 Rises=F Damp=T
 DIIS: error= 6.09D-03 at cycle   2 NSaved=   2.
 NSaved= 2 IEnMin= 2 EnMin= -268.227280343661     IErMin= 2 ErrMin= 6.09D-03
 ErrMax= 6.09D-03 EMaxC= 1.00D-01 BMatC= 2.41D-03 BMatP= 4.96D-02
 IDIUse=3 WtCom= 9.39D-01 WtEn= 6.09D-02
 Coeff-Com: -0.225D+00 0.123D+01
 Coeff-En:   0.000D+00 0.100D+01
 Coeff:     -0.212D+00 0.121D+01
 Gap=     0.278 Goal=   None    Shift=    0.000
 RMSDP=1.95D-03 MaxDP=1.80D-02 DE=-3.90D-02 OVMax= 0.00D+00

 Cycle   3  Pass 0  IDiag  1:
 E= -268.258353782115     Delta-E=       -0.031073438454 Rises=F Damp=F
 DIIS: error= 2.43D-03 at cycle   3 NSaved=   3.
 NSaved= 3 IEnMin= 3 EnMin= -268.258353782115     IErMin= 3 ErrMin= 2.43D-03
 ErrMax= 2.43D-03 EMaxC= 1.00D-01 BMatC= 2.68D-04 BMatP= 2.41D-03
 IDIUse=3 WtCom= 9.76D-01 WtEn= 2.43D-02
 Coeff-Com: -0.852D-01 0.427D+00 0.658D+00
 Coeff-En:   0.000D+00 0.000D+00 0.100D+01
 Coeff:     -0.831D-01 0.417D+00 0.667D+00
 Gap=     0.277 Goal=   None    Shift=    0.000
 RMSDP=7.16D-04 MaxDP=1.22D-02 DE=-3.11D-02 OVMax= 0.00D+00

 Cycle   4  Pass 0  IDiag  1:
 E= -268.258608544660     Delta-E=       -0.000254762545 Rises=F Damp=F
 DIIS: error= 1.72D-03 at cycle   4 NSaved=   4.
 NSaved= 4 IEnMin= 4 EnMin= -268.258608544660     IErMin= 4 ErrMin= 1.72D-03
 ErrMax= 1.72D-03 EMaxC= 1.00D-01 BMatC= 6.20D-05 BMatP= 2.68D-04
 IDIUse=3 WtCom= 9.83D-01 WtEn= 1.72D-02
 Coeff-Com: -0.147D-01 0.673D-01 0.334D+00 0.614D+00
 Coeff-En:   0.000D+00 0.000D+00 0.169D+00 0.831D+00
 Coeff:     -0.145D-01 0.661D-01 0.331D+00 0.618D+00
 Gap=     0.277 Goal=   None    Shift=    0.000
 RMSDP=3.01D-04 MaxDP=5.86D-03 DE=-2.55D-04 OVMax= 0.00D+00

 Cycle   5  Pass 0  IDiag  1:
 E= -268.258680333993     Delta-E=       -0.000071789333 Rises=F Damp=F
 DIIS: error= 5.41D-04 at cycle   5 NSaved=   5.
 NSaved= 5 IEnMin= 5 EnMin= -268.258680333993     IErMin= 5 ErrMin= 5.41D-04
 ErrMax= 5.41D-04 EMaxC= 1.00D-01 BMatC= 6.60D-06 BMatP= 6.20D-05
 IDIUse=3 WtCom= 9.95D-01 WtEn= 5.41D-03
 Coeff-Com: -0.131D-02 0.358D-02 0.129D+00 0.339D+00 0.531D+00
 Coeff-En:   0.000D+00 0.000D+00 0.000D+00 0.303D-01 0.970D+00
 Coeff:     -0.130D-02 0.356D-02 0.128D+00 0.337D+00 0.533D+00
 Gap=     0.277 Goal=   None    Shift=    0.000
 RMSDP=8.75D-05 MaxDP=1.18D-03 DE=-7.18D-05 OVMax= 0.00D+00

 Cycle   6  Pass 0  IDiag  1:
 E= -268.258689283663     Delta-E=       -0.000008949670 Rises=F Damp=F
 DIIS: error= 8.54D-05 at cycle   6 NSaved=   6.
 NSaved= 6 IEnMin= 6 EnMin= -268.258689283663     IErMin= 6 ErrMin= 8.54D-05
 ErrMax= 8.54D-05 EMaxC= 1.00D-01 BMatC= 1.22D-07 BMatP= 6.60D-06
 IDIUse=1 WtCom= 1.00D+00 WtEn= 0.00D+00
 Coeff-Com: -0.452D-03 0.803D-03 0.610D-01 0.165D+00 0.275D+00 0.499D+00
 Coeff:     -0.452D-03 0.803D-03 0.610D-01 0.165D+00 0.275D+00 0.499D+00
 Gap=     0.277 Goal=   None    Shift=    0.000
 RMSDP=1.33D-05 MaxDP=2.04D-04 DE=-8.95D-06 OVMax= 0.00D+00

 Cycle   7  Pass 0  IDiag  1:
 E= -268.258689440851     Delta-E=       -0.000000157188 Rises=F Damp=F
 DIIS: error= 2.07D-05 at cycle   7 NSaved=   7.
 NSaved= 7 IEnMin= 7 EnMin= -268.258689440851     IErMin= 7 ErrMin= 2.07D-05
 ErrMax= 2.07D-05 EMaxC= 1.00D-01 BMatC= 6.96D-09 BMatP= 1.22D-07
 IDIUse=1 WtCom= 1.00D+00 WtEn= 0.00D+00
 Coeff-Com: -0.208D-04-0.735D-04 0.616D-02 0.180D-01 0.354D-01 0.216D+00
 Coeff-Com:  0.724D+00
 Coeff:     -0.208D-04-0.735D-04 0.616D-02 0.180D-01 0.354D-01 0.216D+00
 Coeff:      0.724D+00
 Gap=     0.277 Goal=   None    Shift=    0.000
 RMSDP=2.75D-06 MaxDP=3.98D-05 DE=-1.57D-07 OVMax= 0.00D+00

 Initial convergence to 1.0D-05 achieved.  Increase integral accuracy.
 Cycle   8  Pass 1  IDiag  1:
 E= -268.258612774988     Delta-E=        0.000076665863 Rises=F Damp=F
 DIIS: error= 1.17D-05 at cycle   1 NSaved=   1.
 NSaved= 1 IEnMin= 1 EnMin= -268.258612774988     IErMin= 1 ErrMin= 1.17D-05
 ErrMax= 1.17D-05 EMaxC= 1.00D-01 BMatC= 2.15D-09 BMatP= 2.15D-09
 IDIUse=1 WtCom= 1.00D+00 WtEn= 0.00D+00
 Coeff-Com:  0.100D+01
 Coeff:      0.100D+01
 Gap=     0.277 Goal=   None    Shift=    0.000
 RMSDP=2.75D-06 MaxDP=3.98D-05 DE= 7.67D-05 OVMax= 0.00D+00

 Cycle   9  Pass 1  IDiag  1:
 E= -268.258612779147     Delta-E=       -0.000000004159 Rises=F Damp=F
 DIIS: error= 2.01D-06 at cycle   2 NSaved=   2.
 NSaved= 2 IEnMin= 2 EnMin= -268.258612779147     IErMin= 2 ErrMin= 2.01D-06
 ErrMax= 2.01D-06 EMaxC= 1.00D-01 BMatC= 2.10D-10 BMatP= 2.15D-09
 IDIUse=1 WtCom= 1.00D+00 WtEn= 0.00D+00
 Coeff-Com:  0.107D+00 0.893D+00
 Coeff:      0.107D+00 0.893D+00
 Gap=     0.277 Goal=   None    Shift=    0.000
 RMSDP=9.06D-07 MaxDP=1.63D-05 DE=-4.16D-09 OVMax= 0.00D+00

 Cycle  10  Pass 1  IDiag  1:
 E= -268.258612779071     Delta-E=        0.000000000076 Rises=F Damp=F
 DIIS: error= 2.22D-06 at cycle   3 NSaved=   3.
 NSaved= 3 IEnMin= 2 EnMin= -268.258612779147     IErMin= 2 ErrMin= 2.01D-06
 ErrMax= 2.22D-06 EMaxC= 1.00D-01 BMatC= 2.64D-10 BMatP= 2.10D-10
 IDIUse=1 WtCom= 1.00D+00 WtEn= 0.00D+00
 Coeff-Com: -0.211D-01 0.536D+00 0.485D+00
 Coeff:     -0.211D-01 0.536D+00 0.485D+00
 Gap=     0.277 Goal=   None    Shift=    0.000
 RMSDP=5.17D-07 MaxDP=9.29D-06 DE= 7.64D-11 OVMax= 0.00D+00

 Cycle  11  Pass 1  IDiag  1:
 E= -268.258612779413     Delta-E=       -0.000000000342 Rises=F Damp=F
 DIIS: error= 3.52D-07 at cycle   4 NSaved=   4.
 NSaved= 4 IEnMin= 4 EnMin= -268.258612779413     IErMin= 4 ErrMin= 3.52D-07
 ErrMax= 3.52D-07 EMaxC= 1.00D-01 BMatC= 3.59D-12 BMatP= 2.10D-10
 IDIUse=1 WtCom= 1.00D+00 WtEn= 0.00D+00
 Coeff-Com: -0.120D-01 0.258D+00 0.248D+00 0.506D+00
 Coeff:     -0.120D-01 0.258D+00 0.248D+00 0.506D+00
 Gap=     0.277 Goal=   None    Shift=    0.000
 RMSDP=7.46D-08 MaxDP=1.28D-06 DE=-3.42D-10 OVMax= 0.00D+00

 Cycle  12  Pass 1  IDiag  1:
 E= -268.258612779418     Delta-E=       -0.000000000005 Rises=F Damp=F
 DIIS: error= 7.53D-08 at cycle   5 NSaved=   5.
 NSaved= 5 IEnMin= 5 EnMin= -268.258612779418     IErMin= 5 ErrMin= 7.53D-08
 ErrMax= 7.53D-08 EMaxC= 1.00D-01 BMatC= 2.43D-13 BMatP= 3.59D-12
 IDIUse=1 WtCom= 1.00D+00 WtEn= 0.00D+00
 Coeff-Com: -0.313D-02 0.542D-01 0.570D-01 0.239D+00 0.653D+00
 Coeff:     -0.313D-02 0.542D-01 0.570D-01 0.239D+00 0.653D+00
 Gap=     0.277 Goal=   None    Shift=    0.000
 RMSDP=1.68D-08 MaxDP=2.64D-07 DE=-5.12D-12 OVMax= 0.00D+00

 Cycle  13  Pass 1  IDiag  1:
 E= -268.258612779418     Delta-E=        0.000000000000 Rises=F Damp=F
 DIIS: error= 1.12D-08 at cycle   6 NSaved=   6.
 NSaved= 6 IEnMin= 5 EnMin= -268.258612779418     IErMin= 6 ErrMin= 1.12D-08
 ErrMax= 1.12D-08 EMaxC= 1.00D-01 BMatC= 5.10D-15 BMatP= 2.43D-13
 IDIUse=1 WtCom= 1.00D+00 WtEn= 0.00D+00
 Coeff-Com: -0.122D-04-0.253D-02-0.605D-03 0.375D-01 0.184D+00 0.782D+00
 Coeff:     -0.122D-04-0.253D-02-0.605D-03 0.375D-01 0.184D+00 0.782D+00
 Gap=     0.277 Goal=   None    Shift=    0.000
 RMSDP=2.89D-09 MaxDP=3.16D-08 DE= 1.14D-13 OVMax= 0.00D+00

 SCF Done:  E(RB+HF-LYP) =  -268.258612779     A.U. after   13 cycles
             Convg  =    0.2891D-08             -V/T =  2.0169
             S**2   =   0.0000
 KE= 2.638000561404D+02 PE=-1.157720148841D+03 EE= 3.567483400022D+02
 Leave Link  502 at Fri May 29 11:33:44 2020, MaxMem= 2621440000 cpu:       8.3
 (Enter /home/yoelvis/bin/g03/l801.exe)
 ExpMin= 1.69D-01 ExpMax= 7.16D+01 ExpMxC= 7.16D+01 IAcc=1 IRadAn=         1 AccDes= 1.00D-06
 HarFok:  IExCor= 205 AccDes= 1.00D-06 IRadAn=         1 IDoV=1
 ScaDFX=  1.000000  1.000000  1.000000  1.000000
 Largest valence mixing into a core orbital is  2.00D-04
 Largest core mixing into a valence orbital is  2.45D-04
 Range of M.O.s used for correlation:     8    43
 NBasis=    43 NAE=    25 NBE=    25 NFC=     7 NFV=     0
 NROrb=     36 NOA=    18 NOB=    18 NVA=    18 NVB=    18
 Leave Link  801 at Fri May 29 11:33:49 2020, MaxMem= 2621440000 cpu:       0.1
 (Enter /home/yoelvis/bin/g03/l914.exe)
 RHF ground state
 MDV=2621440000 DFT=T DoStab=F Mixed=T DoRPA=T DoScal=F NonHer=T
 R1, R2, and R3 integrals will be kept in memory, NReq=     2143793.
 Symmetry not used in FoFDir.
 MinBra= 0 MaxBra= 1 Meth= 1.
 IRaf=       0 NMat=   1 IRICut=       1 DoRegI=T DoRafI=F ISym2E= 0 JSym2E=0.
 Making orbital integer symmetry assigments:
    24 initial guesses have been made.
 Convergence on wavefunction:    0.001000000000000
 Davidson Disk Diagonalization:  ConvIn= 1.00D-03 SkipCon=T Conv= 1.00D-03.
 Max sub-space:   200 roots to seek:    24 dimension of matrix:    648
 Iteration     1 Dimension    24 NMult    24
 CISAX:  IP=  4 NPass=   1 NMax=  24.
 CISAX will form  24 AO SS matrices at one time.
 NMat= 24 NSing= 24.
 CISAX:  IP=  4 NPass=   1 NMax=  24.
 CISAX will form  24 AO SS matrices at one time.
 NMat= 24 NSing= 24.
 New state      1 was old state      2
 New state      2 was old state      1
 New state      3 was old state      5
 New state      4 was old state      6
 New state      5 was old state      6
 Excitation Energies [eV] at current iteration:
 Root      1 :     6.324942715742404
 Root      2 :     8.664045131537261
 Root      3 :     8.977695560828137
 Root      4 :     9.098790795636688
 Root      5 :     9.122997079429853
 Root      6 :     9.166526676001949
 Iteration     2 Dimension    36 NMult    36
 CISAX:  IP=  1 NPass=   1 NMax=  12.
 CISAX will form  12 AO SS matrices at one time.
 NMat= 12 NSing= 12.
 CISAX:  IP=  1 NPass=   1 NMax=  12.
 CISAX will form  12 AO SS matrices at one time.
 NMat= 12 NSing= 12.
 Root      1 not converged, maximum delta is    0.007551677719375
 Root      2 not converged, maximum delta is    0.086798310283731
 Root      3 not converged, maximum delta is    0.031314045817352
 Root      4 not converged, maximum delta is    0.080211913243485
 Root      5 not converged, maximum delta is    0.077460847055088
 Root      6 not converged, maximum delta is    0.069074276010793
 Excitation Energies [eV] at current iteration:
 Root      1 :     6.310272912166017   Change is   -0.014669803576387
 Root      2 :     7.583545984127287   Change is   -1.080499147409973
 Root      3 :     8.921340026507902   Change is   -0.056355534320234
 Root      4 :     9.055434529546734   Change is   -0.043356266089955
 Root      5 :     9.080519207833168   Change is   -0.042477871596685
 Root      6 :     9.130342061644601   Change is   -0.036184614357349
 Iteration     3 Dimension    48 NMult    48
 CISAX:  IP=  1 NPass=   1 NMax=  12.
 CISAX will form  12 AO SS matrices at one time.
 NMat= 12 NSing= 12.
 CISAX:  IP=  1 NPass=   1 NMax=  12.
 CISAX will form  12 AO SS matrices at one time.
 NMat= 12 NSing= 12.
 Root      1 has converged.
 Root      2 not converged, maximum delta is    0.007788073303636
 No map to state      3
 New state      4 was old state      3
 Root      4 not converged, maximum delta is    0.623789192800221
 New state      5 was old state      4
 Root      5 not converged, maximum delta is    0.558863807403625
 New state      6 was old state      4
 Root      6 not converged, maximum delta is    0.400161214699800
 Excitation Energies [eV] at current iteration:
 Root      1 :     6.310168593536999   Change is   -0.000104318629018
 Root      2 :     7.570423886714646   Change is   -0.013122097412641
 Root      3 :     8.837740783198464
 Root      4 :     8.920813788132287   Change is   -0.000526238375615
 Root      5 :     9.012499552127519   Change is   -0.042934977419213
 Root      6 :     9.061138010901242   Change is    0.005703481354510
 Iteration     4 Dimension    58 NMult    58
 CISAX:  IP=  1 NPass=   1 NMax=  10.
 CISAX will form  10 AO SS matrices at one time.
 NMat= 10 NSing= 10.
 CISAX:  IP=  1 NPass=   1 NMax=  10.
 CISAX will form  10 AO SS matrices at one time.
 NMat= 10 NSing= 10.
 Root      1 has converged.
 Root      2 not converged, maximum delta is    0.001066208215129
 New state      3 was old state      5
 Root      3 not converged, maximum delta is    0.221932691964113
 New state      4 was old state      3
 Root      4 not converged, maximum delta is    0.220346968328292
 New state      5 was old state      4
 Root      5 not converged, maximum delta is    0.018285987539580
 Root      6 not converged, maximum delta is    0.125549063435382
 Excitation Energies [eV] at current iteration:
 Root      1 :     6.310168182844439   Change is   -0.000000410692559
 Root      2 :     7.570190541192528   Change is   -0.000233345522117
 Root      3 :     8.680647328067259   Change is   -0.331852224060261
 Root      4 :     8.701792522218048   Change is   -0.135948260980417
 Root      5 :     8.921062039773936   Change is    0.000248251641649
 Root      6 :     9.055431163748594   Change is   -0.005706847152650
 Iteration     5 Dimension    68 NMult    68
 CISAX:  IP=  1 NPass=   1 NMax=  10.
 CISAX will form  10 AO SS matrices at one time.
 NMat= 10 NSing= 10.
 CISAX:  IP=  1 NPass=   1 NMax=  10.
 CISAX will form  10 AO SS matrices at one time.
 NMat= 10 NSing= 10.
 Root      1 has converged.
 Root      2 has converged.
 Root      3 not converged, maximum delta is    0.032009960265198
 Root      4 not converged, maximum delta is    0.025201284688929
 Root      5 has converged.
 Root      6 has converged.
 Excitation Energies [eV] at current iteration:
 Root      1 :     6.310168058938603   Change is   -0.000000123905836
 Root      2 :     7.570182120678487   Change is   -0.000008420514042
 Root      3 :     8.672250790683075   Change is   -0.008396537384185
 Root      4 :     8.698412152885423   Change is   -0.003380369332624
 Root      5 :     8.921059117097851   Change is   -0.000002922676085
 Root      6 :     9.055410406279222   Change is   -0.000020757469372
 Iteration     6 Dimension    72 NMult    72
 CISAX:  IP=  1 NPass=   1 NMax=   4.
 CISAX will form   4 AO SS matrices at one time.
 NMat=  4 NSing=  4.
 CISAX:  IP=  1 NPass=   1 NMax=   4.
 CISAX will form   4 AO SS matrices at one time.
 NMat=  4 NSing=  4.
 Root      1 has converged.
 Root      2 has converged.
 Root      3 has converged.
 Root      4 has converged.
 Root      5 has converged.
 Root      6 has converged.
 Excitation Energies [eV] at current iteration:
 Root      1 :     6.310168020210087   Change is   -0.000000038728517
 Root      2 :     7.570182076042262   Change is   -0.000000044636224
 Root      3 :     8.672036532010175   Change is   -0.000214258672900
 Root      4 :     8.698331123025044   Change is   -0.000081029860380
 Root      5 :     8.921059052653497   Change is   -0.000000064444354
 Root      6 :     9.055409937175142   Change is   -0.000000469104079
 Convergence achieved on expansion vectors.
 ***********************************************************************
 Excited states from <AA,BB:AA,BB> singles matrix:
 ***********************************************************************
 
 1PDM for each excited state written to RWF  633
 Ground to excited state Transition electric dipole moments (Au):
       state          X           Y           Z          Osc.
         1        -0.0165     -0.0384      0.0001      0.0003
         2        -0.4155     -0.0245     -0.0161      0.0322
         3        -1.7950     -0.4937     -0.0092      0.7364
         4        -0.6151      1.5513     -0.0042      0.5934
         5        -0.0175      0.0194      0.0147      0.0002
         6        -0.0381     -0.0110     -0.0146      0.0004
 Ground to excited state transition velocity dipole Moments (Au):
       state          X           Y           Z          Osc.
         1         0.0029      0.0050      0.0000      0.0001
         2         0.0768      0.0036      0.0042      0.0142
         3         0.3675      0.0974      0.0034      0.3024
         4         0.1239     -0.3112      0.0015      0.2340
         5         0.0039     -0.0044     -0.0028      0.0001
         6         0.0097      0.0024      0.0085      0.0003
 Ground to excited state transition magnetic dipole Moments (Au):
       state          X           Y           Z
         1        -0.0011      0.0001     -0.0435
         2        -0.0003     -0.0173     -0.0565
         3        -0.0005     -0.0188     -0.1668
         4        -0.0010     -0.0084      0.4015
         5         0.0940     -0.0058     -0.0113
         6        -0.0126     -0.1281     -0.0003
 <0|del|b> * <b|rxdel|0>  (Au), Rotatory Strengths (R) in
 cgs (10**-40 erg-esu-cm/Gauss)
       state          X           Y           Z     R(velocity)
         1         0.0000      0.0000      0.0000     -0.0021
         2         0.0000     -0.0001     -0.0002     -0.2708
         3        -0.0002     -0.0018     -0.0006     -1.9170
         4        -0.0001      0.0026      0.0006      2.2708
         5         0.0004      0.0000      0.0000      0.3065
         6        -0.0001     -0.0003      0.0000     -0.3080
 <0|r|b> * <b|rxdel|0>  (Au), Rotatory Strengths (R) in
 cgs (10**-40 erg-esu-cm/Gauss)
       state          X           Y           Z     R(length)
         1         0.0000      0.0000      0.0000     -0.0028
         2         0.0001      0.0004      0.0009     -0.3398
         3         0.0009      0.0093      0.0015     -2.7694
         4         0.0006     -0.0130     -0.0017      3.3158
         5        -0.0017     -0.0001     -0.0002      0.4542
         6         0.0005      0.0014      0.0000     -0.4462
  <0|del|b> * <b|r|0>  (Au)
       state          X           Y           Z       Osc.(frdel)
         1         0.0000     -0.0002      0.0000      0.0002
         2        -0.0319     -0.0001     -0.0001      0.0214
         3        -0.6597     -0.0481      0.0000      0.4719
         4        -0.0762     -0.4827      0.0000      0.3726
         5        -0.0001     -0.0001      0.0000      0.0001
         6        -0.0004      0.0000     -0.0001      0.0003
 Ground to excited state transition densities written to RWF  633

 Excitation energies and oscillator strengths:
 
 Excited state symmetry could not be determined.
 Excited State   1:   Singlet-?Sym    6.3102 eV  196.48 nm  f=0.0003
      24 -> 26         0.47503
      24 -> 27        -0.16262
      25 -> 26         0.17361
      25 -> 27         0.48761
 This state for optimization and/or second-order correction.
 Total Energy, E(RPA) =  -268.026718358    
 Copying the excited state density for this state as the 1-particle RhoCI density.
 
 Excited state symmetry could not be determined.
 Excited State   2:   Singlet-?Sym    7.5702 eV  163.78 nm  f=0.0322
      24 -> 26        -0.13698
      24 -> 27        -0.36591
      25 -> 26         0.48701
      25 -> 27        -0.16294
 
 Excited state symmetry could not be determined.
 Excited State   3:   Singlet-?Sym    8.6720 eV  142.97 nm  f=0.7364
      24 -> 27         0.47298
      25 -> 26         0.34499
 
 Excited state symmetry could not be determined.
 Excited State   4:   Singlet-?Sym    8.6983 eV  142.54 nm  f=0.5934
      24 -> 26         0.42512
      25 -> 27        -0.40144
 
 Excited state symmetry could not be determined.
 Excited State   5:   Singlet-?Sym    8.9211 eV  138.98 nm  f=0.0002
      22 -> 26        -0.14330
      22 -> 27        -0.21748
      23 -> 26         0.63811
      23 -> 27        -0.13898
 
 Excited state symmetry could not be determined.
 Excited State   6:   Singlet-?Sym    9.0554 eV  136.92 nm  f=0.0004
      22 -> 26        -0.36069
      22 -> 27         0.10681
      23 -> 27         0.58559
 Leave Link  914 at Fri May 29 11:34:04 2020, MaxMem= 2621440000 cpu:      41.1
 (Enter /home/yoelvis/bin/g03/l601.exe)
 Copying SCF densities to generalized density rwf, ISCF=0 IROHF=0.

 **********************************************************************

            Population analysis using the SCF density.

 **********************************************************************

 Alpha  occ. eigenvalues --  -10.02913 -10.02509 -10.01283 -10.01228 -10.01111
 Alpha  occ. eigenvalues --  -10.01053 -10.00975  -0.81818  -0.73883  -0.70805
 Alpha  occ. eigenvalues --   -0.65695  -0.57134  -0.55160  -0.48073  -0.42619
 Alpha  occ. eigenvalues --   -0.42304  -0.39851  -0.38507  -0.37462  -0.35878
 Alpha  occ. eigenvalues --   -0.31398  -0.30408  -0.30185  -0.20219  -0.19523
 Alpha virt. eigenvalues --    0.08217   0.08455   0.24390   0.33604   0.37173
 Alpha virt. eigenvalues --    0.38890   0.42442   0.44470   0.44736   0.46059
 Alpha virt. eigenvalues --    0.47243   0.47820   0.58003   0.58744   0.60041
 Alpha virt. eigenvalues --    0.61117   0.75700   0.80426
          Condensed to atoms (all electrons):
              1          2          3          4          5          6
     1  C    4.771429   0.383117  -0.027766   0.000854   0.000017   0.000869
     2  C    0.383117   4.784773   0.500751  -0.027784  -0.011300  -0.027819
     3  C   -0.027766   0.500751   4.813854   0.507465  -0.029612  -0.012210
     4  C    0.000854  -0.027784   0.507465   4.798420   0.503149  -0.030416
     5  C    0.000017  -0.011300  -0.029612   0.503149   4.800685   0.505223
     6  C    0.000869  -0.027819  -0.012210  -0.030416   0.505223   4.798376
     7  C   -0.027815   0.503678  -0.032090  -0.012266  -0.029576   0.504727
     8  H    0.378200  -0.020020  -0.003168   0.000017   0.000002  -0.000021
     9  H    0.381310  -0.019723   0.001295  -0.000022   0.000000   0.000039
    10  H   -0.003515  -0.026391   0.390343  -0.025914   0.001474   0.000045
    11  H   -0.000016   0.001414  -0.025649   0.391559  -0.025427   0.001484
    12  H    0.000001   0.000034   0.001448  -0.025281   0.391910  -0.025297
    13  H   -0.000016   0.001411   0.000036   0.001486  -0.025443   0.391617
    14  H   -0.003907  -0.026251   0.001483   0.000046   0.001465  -0.025728
    15  H    0.375848  -0.020059  -0.001572  -0.000004   0.000003  -0.000019
              7          8          9         10         11         12
     1  C   -0.027815   0.378200   0.381310  -0.003515  -0.000016   0.000001
     2  C    0.503678  -0.020020  -0.019723  -0.026391   0.001414   0.000034
     3  C   -0.032090  -0.003168   0.001295   0.390343  -0.025649   0.001448
     4  C   -0.012266   0.000017  -0.000022  -0.025914   0.391559  -0.025281
     5  C   -0.029576   0.000002   0.000000   0.001474  -0.025427   0.391910
     6  C    0.504727  -0.000021   0.000039   0.000045   0.001484  -0.025297
     7  C    4.811402   0.000971  -0.004572   0.001495   0.000037   0.001453
     8  H    0.000971   0.607477  -0.020581   0.000396  -0.000001   0.000000
     9  H   -0.004572  -0.020581   0.598555   0.000025   0.000000   0.000000
    10  H    0.001495   0.000396   0.000025   0.594580  -0.003933  -0.000035
    11  H    0.000037  -0.000001   0.000000  -0.003933   0.583902  -0.003681
    12  H    0.001453   0.000000   0.000000  -0.000035  -0.003681   0.581827
    13  H   -0.025537   0.000000  -0.000002   0.000002  -0.000036  -0.003705
    14  H    0.390746   0.000038   0.000775  -0.000039   0.000002  -0.000035
    15  H    0.000222  -0.021195  -0.020613   0.000170   0.000000   0.000000
             13         14         15
     1  C   -0.000016  -0.003907   0.375848
     2  C    0.001411  -0.026251  -0.020059
     3  C    0.000036   0.001483  -0.001572
     4  C    0.001486   0.000046  -0.000004
     5  C   -0.025443   0.001465   0.000003
     6  C    0.391617  -0.025728  -0.000019
     7  C   -0.025537   0.390746   0.000222
     8  H    0.000000   0.000038  -0.021195
     9  H   -0.000002   0.000775  -0.020613
    10  H    0.000002  -0.000039   0.000170
    11  H   -0.000036   0.000002   0.000000
    12  H   -0.003705  -0.000035   0.000000
    13  H    0.582624  -0.003893   0.000000
    14  H   -0.003893   0.587598   0.000065
    15  H    0.000000   0.000065   0.603977
 Mulliken atomic charges:
              1
     1  C   -0.228609
     2  C    0.004171
     3  C   -0.084607
     4  C   -0.081310
     5  C   -0.082568
     6  C   -0.080870
     7  C   -0.082874
     8  H    0.077885
     9  H    0.083513
    10  H    0.071296
    11  H    0.080345
    12  H    0.081361
    13  H    0.081455
    14  H    0.077634
    15  H    0.083176
 Sum of Mulliken charges=   0.00000
 Atomic charges with hydrogens summed into heavy atoms:
              1
     1  C    0.015965
     2  C    0.004171
     3  C   -0.013311
     4  C   -0.000965
     5  C   -0.001207
     6  C    0.000586
     7  C   -0.005240
     8  H    0.000000
     9  H    0.000000
    10  H    0.000000
    11  H    0.000000
    12  H    0.000000
    13  H    0.000000
    14  H    0.000000
    15  H    0.000000
 Sum of Mulliken charges=   0.00000
 Electronic spatial extent (au):  <R**2>=   715.4965
 Charge=     0.0000 electrons
 Dipole moment (field-independent basis, Debye):
    X=     0.2099    Y=     0.0830    Z=     0.0277  Tot=     0.2274
 Quadrupole moment (field-independent basis, Debye-Ang):
   XX=   -36.1450   YY=   -36.6709   ZZ=   -41.1104
   XY=     0.0384   XZ=     0.0640   YZ=    -0.0112
 Traceless Quadrupole moment (field-independent basis, Debye-Ang):
   XX=     1.8304   YY=     1.3045   ZZ=    -3.1349
   XY=     0.0384   XZ=     0.0640   YZ=    -0.0112
 Octapole moment (field-independent basis, Debye-Ang**2):
  XXX=    -2.8407  YYY=     0.7870  ZZZ=     0.3874  XYY=    -0.5193
  XXY=     0.1428  XXZ=     0.2040  XZZ=     2.1086  YZZ=    -0.3779
  YYZ=    -0.3436  XYZ=    -0.0287
 Hexadecapole moment (field-independent basis, Debye-Ang**3):
 XXXX=  -567.6353 YYYY=  -266.2367 ZZZZ=   -40.0604 XXXY=     0.2166
 XXXZ=     0.3963 YYYX=     1.3759 YYYZ=    -0.0065 ZZZX=     1.1412
 ZZZY=    -0.0336 XXYY=  -136.1315 XXZZ=  -106.3104 YYZZ=   -57.5013
 XXYZ=    -0.0714 YYXZ=    -0.9929 ZZXY=    -1.1945
 N-N= 2.689131399195D+02 E-N=-1.157720149893D+03  KE= 2.638000561404D+02
 Leave Link  601 at Fri May 29 11:34:09 2020, MaxMem= 2621440000 cpu:       0.0
 (Enter /home/yoelvis/bin/g03/l9999.exe)

 Test job not archived.
 1\1\GINC-COMET-25-47\SP\RTD-B3LYP-FC\STO-3G\C7H8\YOELVIS\29-May-2020\0
 \\#P b3lyp/STO-3G TD(NStates=6) SCFcyc=500 charge NoSymm\\Gaussian tem
 plate charges\\0,1\C,0,2.42828,0.001838,0.006083\C,0,0.915603,0.00443,
 -0.007524\C,0,0.197635,-1.20203,-0.005671\C,0,-1.19886,-1.208798,0.001
 33\C,0,-1.907868,-0.003065,0.005385\C,0,-1.206495,1.204683,0.001466\C,
 0,0.192215,1.204974,-0.005849\H,0,2.834884,-0.701703,-0.730361\H,0,2.8
 31835,0.994935,-0.21845\H,0,0.739711,-2.146071,-0.011235\H,0,-1.734149
 ,-2.155365,0.001091\H,0,-2.994936,-0.006384,0.0089\H,0,-1.746013,2.148
 821,0.001421\H,0,0.729092,2.151598,-0.01142\H,0,2.816521,-0.29802,0.98
 8731\\Version=AM64L-G03RevD.01\HF=-268.2586128\RMSD=2.891e-09\Thermal=
 0.\PG=C01 [X(C7H8)]\\@


 IF YOU DON'T HAVE THE LAW - ARGUE THE FACTS.
 IF YOU DON'T HAVE THE FACTS - ARGUE THE LAW.
 IF YOU DON'T HAVE EITHER - POUND THE TABLE.
 Job cpu time:  0 days  0 hours  1 minutes 55.8 seconds.
 File lengths (MBytes):  RWF=     27 Int=      0 D2E=      0 Chk=     10 Scr=      1
 Normal termination of Gaussian 03 at Fri May 29 11:34:14 2020.
 Initial command:
 /home/yoelvis/bin/g03/l1.exe /scratch/yoelvis/33721083/scr/Gau-4284.inp -scrdir=/scratch/yoelvis/33721083/scr/
 Entering Link 1 = /home/yoelvis/bin/g03/l1.exe PID=      4799.
  
 Copyright (c) 1988,1990,1992,1993,1995,1998,2003,2004, Gaussian, Inc.
                  All Rights Reserved.
  
 This is the Gaussian(R) 03 program.  It is based on the
 the Gaussian(R) 98 system (copyright 1998, Gaussian, Inc.),
 the Gaussian(R) 94 system (copyright 1995, Gaussian, Inc.),
 the Gaussian 92(TM) system (copyright 1992, Gaussian, Inc.),
 the Gaussian 90(TM) system (copyright 1990, Gaussian, Inc.),
 the Gaussian 88(TM) system (copyright 1988, Gaussian, Inc.),
 the Gaussian 86(TM) system (copyright 1986, Carnegie Mellon
 University), and the Gaussian 82(TM) system (copyright 1983,
 Carnegie Mellon University). Gaussian is a federally registered
 trademark of Gaussian, Inc.
  
 This software contains proprietary and confidential information,
 including trade secrets, belonging to Gaussian, Inc.
  
 This software is provided under written license and may be
 used, copied, transmitted, or stored only in accord with that
 written license.
  
 The following legend is applicable only to US Government
 contracts under FAR:
  
                    RESTRICTED RIGHTS LEGEND
  
 Use, reproduction and disclosure by the US Government is
 subject to restrictions as set forth in subparagraphs (a)
 and (c) of the Commercial Computer Software - Restricted
 Rights clause in FAR 52.227-19.
  
 Gaussian, Inc.
 340 Quinnipiac St., Bldg. 40, Wallingford CT 06492
  
  
 ---------------------------------------------------------------
 Warning -- This program may not be used in any manner that
 competes with the business of Gaussian, Inc. or will provide
 assistance to any competitor of Gaussian, Inc.  The licensee
 of this program is prohibited from giving any competitor of
 Gaussian, Inc. access to this program.  By using this program,
 the user acknowledges that Gaussian, Inc. is engaged in the
 business of creating and licensing software in the field of
 computational chemistry and represents and warrants to the
 licensee that it is not a competitor of Gaussian, Inc. and that
 it will not use this program in any manner prohibited above.
 ---------------------------------------------------------------
  

 Cite this work as:
 Gaussian 03, Revision D.01,
 M. J. Frisch, G. W. Trucks, H. B. Schlegel, G. E. Scuseria, 
 M. A. Robb, J. R. Cheeseman, J. A. Montgomery, Jr., T. Vreven, 
 K. N. Kudin, J. C. Burant, J. M. Millam, S. S. Iyengar, J. Tomasi, 
 V. Barone, B. Mennucci, M. Cossi, G. Scalmani, N. Rega, 
 G. A. Petersson, H. Nakatsuji, M. Hada, M. Ehara, K. Toyota, 
 R. Fukuda, J. Hasegawa, M. Ishida, T. Nakajima, Y. Honda, O. Kitao, 
 H. Nakai, M. Klene, X. Li, J. E. Knox, H. P. Hratchian, J. B. Cross, 
 V. Bakken, C. Adamo, J. Jaramillo, R. Gomperts, R. E. Stratmann, 
 O. Yazyev, A. J. Austin, R. Cammi, C. Pomelli, J. W. Ochterski, 
 P. Y. Ayala, K. Morokuma, G. A. Voth, P. Salvador, J. J. Dannenberg, 
 V. G. Zakrzewski, S. Dapprich, A. D. Daniels, M. C. Strain, 
 O. Farkas, D. K. Malick, A. D. Rabuck, K. Raghavachari, 
 J. B. Foresman, J. V. Ortiz, Q. Cui, A. G. Baboul, S. Clifford, 
 J. Cioslowski, B. B. Stefanov, G. Liu, A. Liashenko, P. Piskorz, 
 I. Komaromi, R. L. Martin, D. J. Fox, T. Keith, M. A. Al-Laham, 
 C. Y. Peng, A. Nanayakkara, M. Challacombe, P. M. W. Gill, 
 B. Johnson, W. Chen, M. W. Wong, C. Gonzalez, and J. A. Pople, 
 Gaussian, Inc., Wallingford CT, 2004.
 
 ******************************************
 Gaussian 03:  AM64L-G03RevD.01 13-Oct-2005
                29-May-2020 
 ******************************************
 %nproc=4
 Will use up to    4 processors via shared memory.
 %mem=20000MB
 ------------------------------------------------------
 #P b3lyp/STO-3G TD(NStates=6) SCFcyc=500 charge NoSymm
 ------------------------------------------------------
 1/18=10,28=-2,38=1/1;
 2/15=1,17=6,18=5,40=1/2;
 3/6=3,11=2,16=1,25=1,30=1,43=1,74=-5/1,2,8,3,7;
 4//1;
 5/5=2,7=500,38=5/2;
 8/6=1,10=1/1;
 9/41=6,42=1/14;
 6/7=2,8=2,9=2,10=2/1;
 99/5=1,9=1/99;
 Leave Link    1 at Fri May 29 11:34:15 2020, MaxMem= 2621440000 cpu:       0.1
 (Enter /home/yoelvis/bin/g03/l101.exe)
 -------------------------
 Gaussian template charges
 -------------------------
 Symbolic Z-matrix:
 Charge =  0 Multiplicity = 1
 C                     2.42828   0.00184   0.00608 
 C                     0.9156    0.00443  -0.00752 
 C                     0.19764  -1.20203  -0.00567 
 C                    -1.19886  -1.2088    0.00133 
 C                    -1.90787  -0.00307   0.00539 
 C                    -1.2065    1.20468   0.00147 
 C                     0.19222   1.20497  -0.00585 
 H                     2.83488  -0.7017   -0.73036 
 H                     2.83184   0.99494  -0.21845 
 H                     0.73971  -2.14607  -0.01124 
 H                    -1.73415  -2.15537   0.00109 
 H                    -2.99494  -0.00638   0.0089 
 H                    -1.74601   2.14882   0.00142 
 H                     0.72909   2.1516   -0.01142 
 H                     2.81652  -0.29802   0.98873 
 
                    Isotopes and Nuclear Properties:
 (Nuclear quadrupole moments (NQMom) in fm**2, nuclear magnetic moments (NMagM)
  in nuclear magnetons)

  Atom         1           2           3           4           5           6           7           8           9          10
 IAtWgt=          12          12          12          12          12          12          12           1           1           1
 AtmWgt=  12.0000000  12.0000000  12.0000000  12.0000000  12.0000000  12.0000000  12.0000000   1.0078250   1.0078250   1.0078250
 NucSpn=           0           0           0           0           0           0           0           1           1           1
 AtZEff=   0.0000000   0.0000000   0.0000000   0.0000000   0.0000000   0.0000000   0.0000000   0.0000000   0.0000000   0.0000000
 NQMom=    0.0000000   0.0000000   0.0000000   0.0000000   0.0000000   0.0000000   0.0000000   0.0000000   0.0000000   0.0000000
 NMagM=    0.0000000   0.0000000   0.0000000   0.0000000   0.0000000   0.0000000   0.0000000   2.7928460   2.7928460   2.7928460

  Atom        11          12          13          14          15
 IAtWgt=           1           1           1           1           1
 AtmWgt=   1.0078250   1.0078250   1.0078250   1.0078250   1.0078250
 NucSpn=           1           1           1           1           1
 AtZEff=   0.0000000   0.0000000   0.0000000   0.0000000   0.0000000
 NQMom=    0.0000000   0.0000000   0.0000000   0.0000000   0.0000000
 NMagM=    2.7928460   2.7928460   2.7928460   2.7928460   2.7928460
 Leave Link  101 at Fri May 29 11:34:20 2020, MaxMem= 2621440000 cpu:       0.1
 (Enter /home/yoelvis/bin/g03/l202.exe)
                          Input orientation:                          
 ---------------------------------------------------------------------
 Center     Atomic     Atomic              Coordinates (Angstroms)
 Number     Number      Type              X           Y           Z
 ---------------------------------------------------------------------
    1          6             0        2.428280    0.001838    0.006083
    2          6             0        0.915603    0.004430   -0.007524
    3          6             0        0.197635   -1.202030   -0.005671
    4          6             0       -1.198860   -1.208798    0.001330
    5          6             0       -1.907868   -0.003065    0.005385
    6          6             0       -1.206495    1.204683    0.001466
    7          6             0        0.192215    1.204974   -0.005849
    8          1             0        2.834884   -0.701703   -0.730361
    9          1             0        2.831835    0.994935   -0.218450
   10          1             0        0.739711   -2.146071   -0.011235
   11          1             0       -1.734149   -2.155365    0.001091
   12          1             0       -2.994936   -0.006384    0.008900
   13          1             0       -1.746013    2.148821    0.001421
   14          1             0        0.729092    2.151598   -0.011420
   15          1             0        2.816521   -0.298020    0.988731
 ---------------------------------------------------------------------
                    Distance matrix (angstroms):
                    1          2          3          4          5
     1  C    0.000000
     2  C    1.512740   0.000000
     3  C    2.534800   1.403933   0.000000
     4  C    3.823847   2.437818   1.396529   0.000000
     5  C    4.336151   2.823510   2.422970   1.398750   0.000000
     6  C    3.828635   2.438030   2.786377   2.413493   1.396637
     7  C    2.539225   1.401642   2.407010   2.785935   2.422774
     8  H    1.096652   2.169045   2.780393   4.130812   4.850063
     9  H    1.095223   2.167380   3.436705   4.599048   4.848803
    10  H    2.732230   2.157685   1.088619   2.153299   3.406233
    11  H    4.688216   3.418475   2.154224   1.087439   2.159304
    12  H    5.423223   3.910588   3.409148   2.161422   1.087079
    13  H    4.694069   3.417995   3.873760   3.401909   2.157968
    14  H    2.740258   2.155257   3.395482   3.874200   3.405351
    15  H    1.098291   2.167369   2.943575   4.234119   4.834648
                    6          7          8          9         10
     6  C    0.000000
     7  C    1.398729   0.000000
     8  H    4.527982   3.338268   0.000000
     9  H    4.049749   2.656484   1.772186   0.000000
    10  H    3.874975   3.395480   2.644445   3.779661   0.000000
    11  H    3.401226   3.873345   4.850177   5.551648   2.473908
    12  H    2.159921   3.409624   5.917497   5.916552   4.304214
    13  H    1.087417   2.155836   5.444778   4.726149   4.962366
    14  H    2.154834   1.088285   3.618365   2.408788   4.297682
    15  H    4.406525   3.183577   1.765949   1.768970   2.954381
                   11         12         13         14         15
    11  H    0.000000
    12  H    2.491539   0.000000
    13  H    4.304202   2.490938   0.000000
    14  H    4.961617   4.304147   2.475140   0.000000
    15  H    5.013358   5.900691   5.270534   3.370206   0.000000
 Symmetry turned off by external request.
 Stoichiometry    C7H8
 Framework group  C1[X(C7H8)]
 Deg. of freedom    39
 Full point group                 C1
 Rotational constants (GHZ):      5.5225639      2.5021768      1.7406439
 Leave Link  202 at Fri May 29 11:34:25 2020, MaxMem= 2621440000 cpu:       0.1
 (Enter /home/yoelvis/bin/g03/l301.exe)
 Standard basis: STO-3G (5D, 7F)
 Integral buffers will be    131072 words long.
 Raffenetti 2 integral format.
 Two-electron integral symmetry is turned off.
 Background charge distribution read from input stream:
 Point Charges:
 XYZ=    5.4692   -0.8186   -1.2745 Q=    0.1000 A=    0.0000 R=    0.0000 C=    0.0000
 Sum of input charges=            0.100000
              Moments=            1.033529           -0.154693           -0.240846
 Self energy of the charges =         0.0000000000
 MM   energy of the charges =         0.0000000000
 Nuclear-Charge attraction  =         0.4963991765
    43 basis functions,   129 primitive gaussians,    43 cartesian basis functions
    25 alpha electrons       25 beta electrons
       nuclear repulsion energy       268.3470963454 Hartrees.
 Nuclear repulsion after solvent point charges=      268.8434955219 Hartrees.
 IExCor= 402 DFT=T Ex=B+HF Corr=LYP ExCW=0 ScaHFX=  0.200000
 ScaDFX=  0.800000  0.720000  1.000000  0.810000
 IRadAn=      0 IRanWt=     -1 IRanGd=            0 ICorTp=0
 NAtoms=   15 NActive=   15 NUniq=   15 SFac= 7.50D-01 NAtFMM=   80 NAOKFM=F Big=F
 Leave Link  301 at Fri May 29 11:34:30 2020, MaxMem= 2621440000 cpu:       0.0
 (Enter /home/yoelvis/bin/g03/l302.exe)
 NPDir=0 NMtPBC=     1 NCelOv=     1 NCel=       1 NClECP=     1 NCelD=      1
         NCelK=      1 NCelE2=     1 NClLst=     1 CellRange=     0.0.
 One-electron integrals computed using PRISM.
 NBasis=    43 RedAO= T  NBF=    43
 NBsUse=    43 1.00D-06 NBFU=    43
 Precomputing XC quadrature grid using
 IXCGrd= 2 IRadAn=           0 IRanWt=          -1 IRanGd=           0.
 NRdTot=     932 NPtTot=      118162 NUsed=      124747 NTot=      124779
 NSgBfM=    43    43    43    43.
 Leave Link  302 at Fri May 29 11:34:35 2020, MaxMem= 2621440000 cpu:       0.6
 (Enter /home/yoelvis/bin/g03/l308.exe)
 Leave Link  308 at Fri May 29 11:34:40 2020, MaxMem= 2621440000 cpu:       0.0
 (Enter /home/yoelvis/bin/g03/l303.exe)
 DipDrv:  MaxL=1.
 Leave Link  303 at Fri May 29 11:34:45 2020, MaxMem= 2621440000 cpu:       0.0
 (Enter /home/yoelvis/bin/g03/l307.exe)
 Leave Link  307 at Fri May 29 11:34:50 2020, MaxMem= 2621440000 cpu:       0.0
 (Enter /home/yoelvis/bin/g03/l401.exe)
 Harris functional with IExCor=  402 diagonalized for initial guess.
 ExpMin= 1.69D-01 ExpMax= 7.16D+01 ExpMxC= 7.16D+01 IAcc=1 IRadAn=         1 AccDes= 1.00D-06
 HarFok:  IExCor= 402 AccDes= 1.00D-06 IRadAn=         1 IDoV=1
 ScaDFX=  1.000000  1.000000  1.000000  1.000000
 Harris En= -267.794993880484    
 Leave Link  401 at Fri May 29 11:34:55 2020, MaxMem= 2621440000 cpu:       0.4
 (Enter /home/yoelvis/bin/g03/l502.exe)
 Closed shell SCF:
 Requested convergence on RMS density matrix=1.00D-08 within 500 cycles.
 Requested convergence on MAX density matrix=1.00D-06.
 Requested convergence on             energy=1.00D-06.
 No special actions if energy rises.
 Using DIIS extrapolation, IDIIS=  1040.
 Two-electron integral symmetry not used.
       124746 words used for storage of precomputed grid.
 Keep R1 integrals in memory in canonical form, NReq=     2492080.
 IEnd=    384283 IEndB=    384283 NGot=2621440000 MDV=2620860665
 LenX=2620860665
 Symmetry not used in FoFDir.
 MinBra= 0 MaxBra= 1 Meth= 1.
 IRaf=       0 NMat=   1 IRICut=       1 DoRegI=T DoRafI=F ISym2E= 0 JSym2E=0.
 Integral accuracy reduced to 1.0D-05 until final iterations.

 Cycle   1  Pass 0  IDiag  1:
 E= -268.188458929445    
 DIIS: error= 2.66D-02 at cycle   1 NSaved=   1.
 NSaved= 1 IEnMin= 1 EnMin= -268.188458929445     IErMin= 1 ErrMin= 2.66D-02
 ErrMax= 2.66D-02 EMaxC= 1.00D-01 BMatC= 4.95D-02 BMatP= 4.95D-02
 IDIUse=3 WtCom= 7.34D-01 WtEn= 2.66D-01
 Coeff-Com:  0.100D+01
 Coeff-En:   0.100D+01
 Coeff:      0.100D+01
 Gap=     0.284 Goal=   None    Shift=    0.000
 GapD=    0.284 DampG=1.000 DampE=0.500 DampFc=0.5000 IDamp=-1.
 Damping current iteration by 5.00D-01
 RMSDP=1.27D-02 MaxDP=1.26D-01              OVMax= 0.00D+00

 Cycle   2  Pass 0  IDiag  1:
 E= -268.227421228607     Delta-E=       -0.038962299162 Rises=F Damp=T
 DIIS: error= 6.07D-03 at cycle   2 NSaved=   2.
 NSaved= 2 IEnMin= 2 EnMin= -268.227421228607     IErMin= 2 ErrMin= 6.07D-03
 ErrMax= 6.07D-03 EMaxC= 1.00D-01 BMatC= 2.40D-03 BMatP= 4.95D-02
 IDIUse=3 WtCom= 9.39D-01 WtEn= 6.07D-02
 Coeff-Com: -0.225D+00 0.123D+01
 Coeff-En:   0.000D+00 0.100D+01
 Coeff:     -0.212D+00 0.121D+01
 Gap=     0.278 Goal=   None    Shift=    0.000
 RMSDP=1.95D-03 MaxDP=1.66D-02 DE=-3.90D-02 OVMax= 0.00D+00

 Cycle   3  Pass 0  IDiag  1:
 E= -268.258463891474     Delta-E=       -0.031042662867 Rises=F Damp=F
 DIIS: error= 2.36D-03 at cycle   3 NSaved=   3.
 NSaved= 3 IEnMin= 3 EnMin= -268.258463891474     IErMin= 3 ErrMin= 2.36D-03
 ErrMax= 2.36D-03 EMaxC= 1.00D-01 BMatC= 2.63D-04 BMatP= 2.40D-03
 IDIUse=3 WtCom= 9.76D-01 WtEn= 2.36D-02
 Coeff-Com: -0.846D-01 0.424D+00 0.661D+00
 Coeff-En:   0.000D+00 0.000D+00 0.100D+01
 Coeff:     -0.826D-01 0.414D+00 0.669D+00
 Gap=     0.278 Goal=   None    Shift=    0.000
 RMSDP=7.05D-04 MaxDP=1.21D-02 DE=-3.10D-02 OVMax= 0.00D+00

 Cycle   4  Pass 0  IDiag  1:
 E= -268.258714470405     Delta-E=       -0.000250578931 Rises=F Damp=F
 DIIS: error= 1.68D-03 at cycle   4 NSaved=   4.
 NSaved= 4 IEnMin= 4 EnMin= -268.258714470405     IErMin= 4 ErrMin= 1.68D-03
 ErrMax= 1.68D-03 EMaxC= 1.00D-01 BMatC= 5.97D-05 BMatP= 2.63D-04
 IDIUse=3 WtCom= 9.83D-01 WtEn= 1.68D-02
 Coeff-Com: -0.143D-01 0.654D-01 0.332D+00 0.617D+00
 Coeff-En:   0.000D+00 0.000D+00 0.163D+00 0.837D+00
 Coeff:     -0.141D-01 0.643D-01 0.329D+00 0.621D+00
 Gap=     0.277 Goal=   None    Shift=    0.000
 RMSDP=2.94D-04 MaxDP=5.85D-03 DE=-2.51D-04 OVMax= 0.00D+00

 Cycle   5  Pass 0  IDiag  1:
 E= -268.258782878760     Delta-E=       -0.000068408355 Rises=F Damp=F
 DIIS: error= 5.43D-04 at cycle   5 NSaved=   5.
 NSaved= 5 IEnMin= 5 EnMin= -268.258782878760     IErMin= 5 ErrMin= 5.43D-04
 ErrMax= 5.43D-04 EMaxC= 1.00D-01 BMatC= 6.43D-06 BMatP= 5.97D-05
 IDIUse=3 WtCom= 9.95D-01 WtEn= 5.43D-03
 Coeff-Com: -0.126D-02 0.338D-02 0.128D+00 0.340D+00 0.529D+00
 Coeff-En:   0.000D+00 0.000D+00 0.000D+00 0.295D-01 0.970D+00
 Coeff:     -0.125D-02 0.336D-02 0.128D+00 0.338D+00 0.532D+00
 Gap=     0.278 Goal=   None    Shift=    0.000
 RMSDP=8.61D-05 MaxDP=1.22D-03 DE=-6.84D-05 OVMax= 0.00D+00

 Cycle   6  Pass 0  IDiag  1:
 E= -268.258791530714     Delta-E=       -0.000008651953 Rises=F Damp=F
 DIIS: error= 8.43D-05 at cycle   6 NSaved=   6.
 NSaved= 6 IEnMin= 6 EnMin= -268.258791530714     IErMin= 6 ErrMin= 8.43D-05
 ErrMax= 8.43D-05 EMaxC= 1.00D-01 BMatC= 1.17D-07 BMatP= 6.43D-06
 IDIUse=1 WtCom= 1.00D+00 WtEn= 0.00D+00
 Coeff-Com: -0.434D-03 0.748D-03 0.608D-01 0.165D+00 0.274D+00 0.500D+00
 Coeff:     -0.434D-03 0.748D-03 0.608D-01 0.165D+00 0.274D+00 0.500D+00
 Gap=     0.278 Goal=   None    Shift=    0.000
 RMSDP=1.32D-05 MaxDP=1.87D-04 DE=-8.65D-06 OVMax= 0.00D+00

 Cycle   7  Pass 0  IDiag  1:
 E= -268.258791682848     Delta-E=       -0.000000152135 Rises=F Damp=F
 DIIS: error= 2.11D-05 at cycle   7 NSaved=   7.
 NSaved= 7 IEnMin= 7 EnMin= -268.258791682848     IErMin= 7 ErrMin= 2.11D-05
 ErrMax= 2.11D-05 EMaxC= 1.00D-01 BMatC= 7.19D-09 BMatP= 1.17D-07
 IDIUse=1 WtCom= 1.00D+00 WtEn= 0.00D+00
 Coeff-Com: -0.185D-04-0.786D-04 0.598D-02 0.174D-01 0.349D-01 0.221D+00
 Coeff-Com:  0.720D+00
 Coeff:     -0.185D-04-0.786D-04 0.598D-02 0.174D-01 0.349D-01 0.221D+00
 Coeff:      0.720D+00
 Gap=     0.278 Goal=   None    Shift=    0.000
 RMSDP=2.77D-06 MaxDP=3.75D-05 DE=-1.52D-07 OVMax= 0.00D+00

 Initial convergence to 1.0D-05 achieved.  Increase integral accuracy.
 Cycle   8  Pass 1  IDiag  1:
 E= -268.258715000598     Delta-E=        0.000076682250 Rises=F Damp=F
 DIIS: error= 1.17D-05 at cycle   1 NSaved=   1.
 NSaved= 1 IEnMin= 1 EnMin= -268.258715000598     IErMin= 1 ErrMin= 1.17D-05
 ErrMax= 1.17D-05 EMaxC= 1.00D-01 BMatC= 2.15D-09 BMatP= 2.15D-09
 IDIUse=1 WtCom= 1.00D+00 WtEn= 0.00D+00
 Coeff-Com:  0.100D+01
 Coeff:      0.100D+01
 Gap=     0.278 Goal=   None    Shift=    0.000
 RMSDP=2.77D-06 MaxDP=3.75D-05 DE= 7.67D-05 OVMax= 0.00D+00

 Cycle   9  Pass 1  IDiag  1:
 E= -268.258715004761     Delta-E=       -0.000000004163 Rises=F Damp=F
 DIIS: error= 2.13D-06 at cycle   2 NSaved=   2.
 NSaved= 2 IEnMin= 2 EnMin= -268.258715004761     IErMin= 2 ErrMin= 2.13D-06
 ErrMax= 2.13D-06 EMaxC= 1.00D-01 BMatC= 2.13D-10 BMatP= 2.15D-09
 IDIUse=1 WtCom= 1.00D+00 WtEn= 0.00D+00
 Coeff-Com:  0.109D+00 0.891D+00
 Coeff:      0.109D+00 0.891D+00
 Gap=     0.278 Goal=   None    Shift=    0.000
 RMSDP=8.98D-07 MaxDP=1.67D-05 DE=-4.16D-09 OVMax= 0.00D+00

 Cycle  10  Pass 1  IDiag  1:
 E= -268.258715004694     Delta-E=        0.000000000067 Rises=F Damp=F
 DIIS: error= 2.21D-06 at cycle   3 NSaved=   3.
 NSaved= 3 IEnMin= 2 EnMin= -268.258715004761     IErMin= 2 ErrMin= 2.13D-06
 ErrMax= 2.21D-06 EMaxC= 1.00D-01 BMatC= 2.60D-10 BMatP= 2.13D-10
 IDIUse=1 WtCom= 1.00D+00 WtEn= 0.00D+00
 Coeff-Com: -0.211D-01 0.532D+00 0.490D+00
 Coeff:     -0.211D-01 0.532D+00 0.490D+00
 Gap=     0.278 Goal=   None    Shift=    0.000
 RMSDP=5.08D-07 MaxDP=9.51D-06 DE= 6.72D-11 OVMax= 0.00D+00

 Cycle  11  Pass 1  IDiag  1:
 E= -268.258715005026     Delta-E=       -0.000000000332 Rises=F Damp=F
 DIIS: error= 3.64D-07 at cycle   4 NSaved=   4.
 NSaved= 4 IEnMin= 4 EnMin= -268.258715005026     IErMin= 4 ErrMin= 3.64D-07
 ErrMax= 3.64D-07 EMaxC= 1.00D-01 BMatC= 3.53D-12 BMatP= 2.13D-10
 IDIUse=1 WtCom= 1.00D+00 WtEn= 0.00D+00
 Coeff-Com: -0.120D-01 0.256D+00 0.251D+00 0.505D+00
 Coeff:     -0.120D-01 0.256D+00 0.251D+00 0.505D+00
 Gap=     0.278 Goal=   None    Shift=    0.000
 RMSDP=7.45D-08 MaxDP=1.27D-06 DE=-3.32D-10 OVMax= 0.00D+00

 Cycle  12  Pass 1  IDiag  1:
 E= -268.258715005032     Delta-E=       -0.000000000005 Rises=F Damp=F
 DIIS: error= 8.10D-08 at cycle   5 NSaved=   5.
 NSaved= 5 IEnMin= 5 EnMin= -268.258715005032     IErMin= 5 ErrMin= 8.10D-08
 ErrMax= 8.10D-08 EMaxC= 1.00D-01 BMatC= 2.49D-13 BMatP= 3.53D-12
 IDIUse=1 WtCom= 1.00D+00 WtEn= 0.00D+00
 Coeff-Com: -0.311D-02 0.535D-01 0.571D-01 0.241D+00 0.651D+00
 Coeff:     -0.311D-02 0.535D-01 0.571D-01 0.241D+00 0.651D+00
 Gap=     0.278 Goal=   None    Shift=    0.000
 RMSDP=1.72D-08 MaxDP=2.63D-07 DE=-5.34D-12 OVMax= 0.00D+00

 Cycle  13  Pass 1  IDiag  1:
 E= -268.258715005033     Delta-E=       -0.000000000001 Rises=F Damp=F
 DIIS: error= 1.13D-08 at cycle   6 NSaved=   6.
 NSaved= 6 IEnMin= 6 EnMin= -268.258715005033     IErMin= 6 ErrMin= 1.13D-08
 ErrMax= 1.13D-08 EMaxC= 1.00D-01 BMatC= 5.29D-15 BMatP= 2.49D-13
 IDIUse=1 WtCom= 1.00D+00 WtEn= 0.00D+00
 Coeff-Com:  0.911D-05-0.302D-02-0.108D-02 0.373D-01 0.184D+00 0.783D+00
 Coeff:      0.911D-05-0.302D-02-0.108D-02 0.373D-01 0.184D+00 0.783D+00
 Gap=     0.278 Goal=   None    Shift=    0.000
 RMSDP=2.91D-09 MaxDP=3.14D-08 DE=-1.14D-12 OVMax= 0.00D+00

 SCF Done:  E(RB+HF-LYP) =  -268.258715005     A.U. after   13 cycles
             Convg  =    0.2914D-08             -V/T =  2.0169
             S**2   =   0.0000
 KE= 2.638005326800D+02 PE=-1.157649825008D+03 EE= 3.567470818008D+02
 Leave Link  502 at Fri May 29 11:35:02 2020, MaxMem= 2621440000 cpu:       8.3
 (Enter /home/yoelvis/bin/g03/l801.exe)
 ExpMin= 1.69D-01 ExpMax= 7.16D+01 ExpMxC= 7.16D+01 IAcc=1 IRadAn=         1 AccDes= 1.00D-06
 HarFok:  IExCor= 205 AccDes= 1.00D-06 IRadAn=         1 IDoV=1
 ScaDFX=  1.000000  1.000000  1.000000  1.000000
 Largest valence mixing into a core orbital is  2.11D-04
 Largest core mixing into a valence orbital is  2.45D-04
 Range of M.O.s used for correlation:     8    43
 NBasis=    43 NAE=    25 NBE=    25 NFC=     7 NFV=     0
 NROrb=     36 NOA=    18 NOB=    18 NVA=    18 NVB=    18
 Leave Link  801 at Fri May 29 11:35:07 2020, MaxMem= 2621440000 cpu:       0.1
 (Enter /home/yoelvis/bin/g03/l914.exe)
 RHF ground state
 MDV=2621440000 DFT=T DoStab=F Mixed=T DoRPA=T DoScal=F NonHer=T
 R1, R2, and R3 integrals will be kept in memory, NReq=     2143793.
 Symmetry not used in FoFDir.
 MinBra= 0 MaxBra= 1 Meth= 1.
 IRaf=       0 NMat=   1 IRICut=       1 DoRegI=T DoRafI=F ISym2E= 0 JSym2E=0.
 Making orbital integer symmetry assigments:
    24 initial guesses have been made.
 Convergence on wavefunction:    0.001000000000000
 Davidson Disk Diagonalization:  ConvIn= 1.00D-03 SkipCon=T Conv= 1.00D-03.
 Max sub-space:   200 roots to seek:    24 dimension of matrix:    648
 Iteration     1 Dimension    24 NMult    24
 CISAX:  IP=  4 NPass=   1 NMax=  24.
 CISAX will form  24 AO SS matrices at one time.
 NMat= 24 NSing= 24.
 CISAX:  IP=  4 NPass=   1 NMax=  24.
 CISAX will form  24 AO SS matrices at one time.
 NMat= 24 NSing= 24.
 New state      1 was old state      2
 New state      2 was old state      1
 New state      3 was old state      5
 New state      4 was old state      6
 Excitation Energies [eV] at current iteration:
 Root      1 :     6.325581997787223
 Root      2 :     8.666051394957933
 Root      3 :     8.974845900480654
 Root      4 :     9.096290145004973
 Root      5 :     9.127845249375520
 Root      6 :     9.170292183482410
 Iteration     2 Dimension    36 NMult    36
 CISAX:  IP=  1 NPass=   1 NMax=  12.
 CISAX will form  12 AO SS matrices at one time.
 NMat= 12 NSing= 12.
 CISAX:  IP=  1 NPass=   1 NMax=  12.
 CISAX will form  12 AO SS matrices at one time.
 NMat= 12 NSing= 12.
 Root      1 not converged, maximum delta is    0.007492719289766
 Root      2 not converged, maximum delta is    0.086941078220412
 Root      3 not converged, maximum delta is    0.030780977808976
 Root      4 not converged, maximum delta is    0.079251812526969
 Root      5 not converged, maximum delta is    0.070890830541447
 Root      6 not converged, maximum delta is    0.065729551440568
 Excitation Energies [eV] at current iteration:
 Root      1 :     6.311038885788752   Change is   -0.014543111998471
 Root      2 :     7.584424686414343   Change is   -1.081626708543589
 Root      3 :     8.918758647657558   Change is   -0.056087252823096
 Root      4 :     9.053983277973298   Change is   -0.042306867031674
 Root      5 :     9.084541275326911   Change is   -0.043303974048609
 Root      6 :     9.133885951862048   Change is   -0.036406231620361
 Iteration     3 Dimension    48 NMult    48
 CISAX:  IP=  1 NPass=   1 NMax=  12.
 CISAX will form  12 AO SS matrices at one time.
 NMat= 12 NSing= 12.
 CISAX:  IP=  1 NPass=   1 NMax=  12.
 CISAX will form  12 AO SS matrices at one time.
 NMat= 12 NSing= 12.
 Root      1 has converged.
 Root      2 not converged, maximum delta is    0.007772039883737
 No map to state      3
 New state      4 was old state      3
 Root      4 not converged, maximum delta is    0.619697023062696
 New state      5 was old state      4
 Root      5 not converged, maximum delta is    0.551781819792395
 New state      6 was old state      4
 Root      6 not converged, maximum delta is    0.262607957462085
 Excitation Energies [eV] at current iteration:
 Root      1 :     6.310939003635191   Change is   -0.000099882153562
 Root      2 :     7.571314296133180   Change is   -0.013110390281163
 Root      3 :     8.858406895708702
 Root      4 :     8.918341112058968   Change is   -0.000417535598590
 Root      5 :     9.038480886037622   Change is   -0.015502391935676
 Root      6 :     9.070354849071517   Change is    0.016371571098219
 Iteration     4 Dimension    58 NMult    58
 CISAX:  IP=  1 NPass=   1 NMax=  10.
 CISAX will form  10 AO SS matrices at one time.
 NMat= 10 NSing= 10.
 CISAX:  IP=  1 NPass=   1 NMax=  10.
 CISAX will form  10 AO SS matrices at one time.
 NMat= 10 NSing= 10.
 Root      1 has converged.
 Root      2 not converged, maximum delta is    0.001170799453124
 Root      3 not converged, maximum delta is    0.317344768656183
 New state      4 was old state      3
 Root      4 not converged, maximum delta is    0.183589500007540
 New state      5 was old state      4
 Root      5 not converged, maximum delta is    0.014057872340923
 Root      6 not converged, maximum delta is    0.276652188045603
 Excitation Energies [eV] at current iteration:
 Root      1 :     6.310938633926325   Change is   -0.000000369708866
 Root      2 :     7.571080790460580   Change is   -0.000233505672601
 Root      3 :     8.682195957461740   Change is   -0.176210938246962
 Root      4 :     8.703543468731841   Change is   -0.154863426976862
 Root      5 :     8.918466523044025   Change is    0.000125410985057
 Root      6 :     9.053895540441742   Change is   -0.016459308629777
 Iteration     5 Dimension    68 NMult    68
 CISAX:  IP=  1 NPass=   1 NMax=  10.
 CISAX will form  10 AO SS matrices at one time.
 NMat= 10 NSing= 10.
 CISAX:  IP=  1 NPass=   1 NMax=  10.
 CISAX will form  10 AO SS matrices at one time.
 NMat= 10 NSing= 10.
 Root      1 has converged.
 Root      2 has converged.
 Root      3 not converged, maximum delta is    0.051402808849036
 Root      4 not converged, maximum delta is    0.052263108009293
 Root      5 has converged.
 Root      6 has converged.
 Excitation Energies [eV] at current iteration:
 Root      1 :     6.310938479111067   Change is   -0.000000154815258
 Root      2 :     7.571072430355900   Change is   -0.000008360104680
 Root      3 :     8.673228039576733   Change is   -0.008967917885009
 Root      4 :     8.699835917095802   Change is   -0.003707551636038
 Root      5 :     8.918464255268571   Change is   -0.000002267775453
 Root      6 :     9.053875093777002   Change is   -0.000020446664739
 Iteration     6 Dimension    72 NMult    72
 CISAX:  IP=  1 NPass=   1 NMax=   4.
 CISAX will form   4 AO SS matrices at one time.
 NMat=  4 NSing=  4.
 CISAX:  IP=  1 NPass=   1 NMax=   4.
 CISAX will form   4 AO SS matrices at one time.
 NMat=  4 NSing=  4.
 Root      1 has converged.
 Root      2 has converged.
 Root      3 has converged.
 Root      4 has converged.
 Root      5 has converged.
 Root      6 has converged.
 Excitation Energies [eV] at current iteration:
 Root      1 :     6.310938445795529   Change is   -0.000000033315538
 Root      2 :     7.571072380385561   Change is   -0.000000049970339
 Root      3 :     8.673012156229227   Change is   -0.000215883347506
 Root      4 :     8.699750337158978   Change is   -0.000085579936824
 Root      5 :     8.918464207407112   Change is   -0.000000047861460
 Root      6 :     9.053874699079206   Change is   -0.000000394697797
 Convergence achieved on expansion vectors.
 ***********************************************************************
 Excited states from <AA,BB:AA,BB> singles matrix:
 ***********************************************************************
 
 1PDM for each excited state written to RWF  633
 Ground to excited state Transition electric dipole moments (Au):
       state          X           Y           Z          Osc.
         1        -0.0104     -0.0347      0.0002      0.0002
         2        -0.4140     -0.0264     -0.0161      0.0320
         3         1.7913      0.5019      0.0093      0.7354
         4         0.6243     -1.5495      0.0043      0.5948
         5        -0.0144      0.0210      0.0167      0.0002
         6        -0.0372     -0.0046     -0.0081      0.0003
 Ground to excited state transition velocity dipole Moments (Au):
       state          X           Y           Z          Osc.
         1         0.0020      0.0044      0.0000      0.0001
         2         0.0765      0.0039      0.0042      0.0141
         3        -0.3668     -0.0991     -0.0034      0.3019
         4        -0.1258      0.3109     -0.0015      0.2345
         5         0.0032     -0.0047     -0.0036      0.0001
         6         0.0094      0.0010      0.0067      0.0003
 Ground to excited state transition magnetic dipole Moments (Au):
       state          X           Y           Z
         1        -0.0011      0.0002     -0.0412
         2        -0.0002     -0.0174     -0.0574
         3         0.0006      0.0189      0.1694
         4         0.0005      0.0085     -0.4003
         5         0.0953      0.0019     -0.0104
         6        -0.0018     -0.1177      0.0001
 <0|del|b> * <b|rxdel|0>  (Au), Rotatory Strengths (R) in
 cgs (10**-40 erg-esu-cm/Gauss)
       state          X           Y           Z     R(velocity)
         1         0.0000      0.0000      0.0000      0.0003
         2         0.0000     -0.0001     -0.0002     -0.2782
         3        -0.0002     -0.0019     -0.0006     -1.9715
         4        -0.0001      0.0027      0.0006      2.3537
         5         0.0003      0.0000      0.0000      0.2390
         6         0.0000     -0.0001      0.0000     -0.0913
 <0|r|b> * <b|rxdel|0>  (Au), Rotatory Strengths (R) in
 cgs (10**-40 erg-esu-cm/Gauss)
       state          X           Y           Z     R(length)
         1         0.0000      0.0000      0.0000      0.0006
         2         0.0001      0.0005      0.0009     -0.3499
         3         0.0010      0.0095      0.0016     -2.8477
         4         0.0003     -0.0132     -0.0017      3.4425
         5        -0.0014      0.0000     -0.0002      0.3548
         6         0.0001      0.0005      0.0000     -0.1434
  <0|del|b> * <b|r|0>  (Au)
       state          X           Y           Z       Osc.(frdel)
         1         0.0000     -0.0002      0.0000      0.0001
         2        -0.0317     -0.0001     -0.0001      0.0212
         3        -0.6570     -0.0497      0.0000      0.4712
         4        -0.0785     -0.4817      0.0000      0.3735
         5         0.0000     -0.0001     -0.0001      0.0001
         6        -0.0004      0.0000     -0.0001      0.0003
 Ground to excited state transition densities written to RWF  633

 Excitation energies and oscillator strengths:
 
 Excited state symmetry could not be determined.
 Excited State   1:   Singlet-?Sym    6.3109 eV  196.46 nm  f=0.0002
      24 -> 26        -0.48746
      24 -> 27         0.12371
      25 -> 26         0.13208
      25 -> 27         0.49967
 This state for optimization and/or second-order correction.
 Total Energy, E(RPA) =  -268.026792271    
 Copying the excited state density for this state as the 1-particle RhoCI density.
 
 Excited state symmetry could not be determined.
 Excited State   2:   Singlet-?Sym    7.5711 eV  163.76 nm  f=0.0320
      24 -> 26         0.10381
      24 -> 27         0.37646
      25 -> 26         0.49840
      25 -> 27        -0.12437
 
 Excited state symmetry could not be determined.
 Excited State   3:   Singlet-?Sym    8.6730 eV  142.95 nm  f=0.7354
      24 -> 27         0.47446
      25 -> 26        -0.34517
 
 Excited state symmetry could not be determined.
 Excited State   4:   Singlet-?Sym    8.6998 eV  142.51 nm  f=0.5948
      24 -> 26         0.42487
      25 -> 27         0.40340
 
 Excited state symmetry could not be determined.
 Excited State   5:   Singlet-?Sym    8.9185 eV  139.02 nm  f=0.0002
      22 -> 26        -0.14361
      22 -> 27        -0.20696
      23 -> 26         0.64121
      23 -> 27        -0.14061
 
 Excited state symmetry could not be determined.
 Excited State   6:   Singlet-?Sym    9.0539 eV  136.94 nm  f=0.0003
      22 -> 26        -0.32420
      23 -> 27         0.60704
 Leave Link  914 at Fri May 29 11:35:22 2020, MaxMem= 2621440000 cpu:      41.1
 (Enter /home/yoelvis/bin/g03/l601.exe)
 Copying SCF densities to generalized density rwf, ISCF=0 IROHF=0.

 **********************************************************************

            Population analysis using the SCF density.

 **********************************************************************

 Alpha  occ. eigenvalues --  -10.02887 -10.02367 -10.01102 -10.01082 -10.00958
 Alpha  occ. eigenvalues --  -10.00846 -10.00833  -0.81663  -0.73771  -0.70634
 Alpha  occ. eigenvalues --   -0.65618  -0.56961  -0.55022  -0.47917  -0.42463
 Alpha  occ. eigenvalues --   -0.42186  -0.39801  -0.38328  -0.37343  -0.35820
 Alpha  occ. eigenvalues --   -0.31253  -0.30275  -0.30016  -0.20054  -0.19377
 Alpha virt. eigenvalues --    0.08373   0.08614   0.24545   0.33762   0.37291
 Alpha virt. eigenvalues --    0.39019   0.42563   0.44553   0.44883   0.46175
 Alpha virt. eigenvalues --    0.47246   0.47967   0.58150   0.58932   0.60206
 Alpha virt. eigenvalues --    0.61259   0.75859   0.80587
          Condensed to atoms (all electrons):
              1          2          3          4          5          6
     1  C    4.771491   0.383248  -0.027712   0.000855   0.000017   0.000870
     2  C    0.383248   4.784298   0.500716  -0.027790  -0.011300  -0.027827
     3  C   -0.027712   0.500716   4.813376   0.507363  -0.029612  -0.012214
     4  C    0.000855  -0.027790   0.507363   4.798429   0.503078  -0.030424
     5  C    0.000017  -0.011300  -0.029612   0.503078   4.800940   0.505276
     6  C    0.000870  -0.027827  -0.012214  -0.030424   0.505276   4.798820
     7  C   -0.027871   0.503720  -0.032094  -0.012266  -0.029577   0.504777
     8  H    0.378221  -0.019926  -0.003166   0.000017   0.000002  -0.000021
     9  H    0.381005  -0.019782   0.001296  -0.000022   0.000000   0.000039
    10  H   -0.003517  -0.026240   0.390517  -0.025802   0.001471   0.000045
    11  H   -0.000016   0.001415  -0.025632   0.391595  -0.025448   0.001483
    12  H    0.000001   0.000034   0.001449  -0.025284   0.391884  -0.025316
    13  H   -0.000016   0.001410   0.000036   0.001486  -0.025453   0.391598
    14  H   -0.003911  -0.026286   0.001484   0.000046   0.001465  -0.025755
    15  H    0.375998  -0.019941  -0.001573  -0.000004   0.000003  -0.000019
              7          8          9         10         11         12
     1  C   -0.027871   0.378221   0.381005  -0.003517  -0.000016   0.000001
     2  C    0.503720  -0.019926  -0.019782  -0.026240   0.001415   0.000034
     3  C   -0.032094  -0.003166   0.001296   0.390517  -0.025632   0.001449
     4  C   -0.012266   0.000017  -0.000022  -0.025802   0.391595  -0.025284
     5  C   -0.029577   0.000002   0.000000   0.001471  -0.025448   0.391884
     6  C    0.504777  -0.000021   0.000039   0.000045   0.001483  -0.025316
     7  C    4.812066   0.000970  -0.004575   0.001490   0.000037   0.001453
     8  H    0.000970   0.607712  -0.020819   0.000385  -0.000001   0.000000
     9  H   -0.004575  -0.020819   0.602513   0.000025   0.000000   0.000000
    10  H    0.001490   0.000385   0.000025   0.589624  -0.003931  -0.000035
    11  H    0.000037  -0.000001   0.000000  -0.003931   0.583580  -0.003679
    12  H    0.001453   0.000000   0.000000  -0.000035  -0.003679   0.582209
    13  H   -0.025558   0.000000  -0.000002   0.000002  -0.000036  -0.003706
    14  H    0.390677   0.000038   0.000779  -0.000038   0.000002  -0.000035
    15  H    0.000220  -0.021128  -0.020757   0.000167   0.000000   0.000000
             13         14         15
     1  C   -0.000016  -0.003911   0.375998
     2  C    0.001410  -0.026286  -0.019941
     3  C    0.000036   0.001484  -0.001573
     4  C    0.001486   0.000046  -0.000004
     5  C   -0.025453   0.001465   0.000003
     6  C    0.391598  -0.025755  -0.000019
     7  C   -0.025558   0.390677   0.000220
     8  H    0.000000   0.000038  -0.021128
     9  H   -0.000002   0.000779  -0.020757
    10  H    0.000002  -0.000038   0.000167
    11  H   -0.000036   0.000002   0.000000
    12  H   -0.003706  -0.000035   0.000000
    13  H    0.583265  -0.003895   0.000000
    14  H   -0.003895   0.588869   0.000065
    15  H    0.000000   0.000065   0.602371
 Mulliken atomic charges:
              1
     1  C   -0.228660
     2  C    0.004251
     3  C   -0.084234
     4  C   -0.081279
     5  C   -0.082744
     6  C   -0.081332
     7  C   -0.083470
     8  H    0.077715
     9  H    0.080300
    10  H    0.075837
    11  H    0.080631
    12  H    0.081024
    13  H    0.080867
    14  H    0.076495
    15  H    0.084598
 Sum of Mulliken charges=   0.00000
 Atomic charges with hydrogens summed into heavy atoms:
              1
     1  C    0.013952
     2  C    0.004251
     3  C   -0.008397
     4  C   -0.000647
     5  C   -0.001720
[...]
 Gap=     0.277 Goal=   None    Shift=    0.000
 RMSDP=2.88D-09 MaxDP=3.04D-08 DE=-2.39D-12 OVMax= 0.00D+00

 SCF Done:  E(RB+HF-LYP) =  -268.259510779     A.U. after   13 cycles
             Convg  =    0.2883D-08             -V/T =  2.0169
             S**2   =   0.0000
 KE= 2.638099598735D+02 PE=-1.157879386119D+03 EE= 3.567892687045D+02
 Leave Link  502 at Fri May 29 11:47:59 2020, MaxMem= 2621440000 cpu:       8.3
 (Enter /home/yoelvis/bin/g03/l801.exe)
 ExpMin= 1.69D-01 ExpMax= 7.16D+01 ExpMxC= 7.16D+01 IAcc=1 IRadAn=         1 AccDes= 1.00D-06
 HarFok:  IExCor= 205 AccDes= 1.00D-06 IRadAn=         1 IDoV=1
 ScaDFX=  1.000000  1.000000  1.000000  1.000000
 Largest valence mixing into a core orbital is  1.96D-04
 Largest core mixing into a valence orbital is  2.45D-04
 Range of M.O.s used for correlation:     8    43
 NBasis=    43 NAE=    25 NBE=    25 NFC=     7 NFV=     0
 NROrb=     36 NOA=    18 NOB=    18 NVA=    18 NVB=    18
 Leave Link  801 at Fri May 29 11:48:04 2020, MaxMem= 2621440000 cpu:       0.1
 (Enter /home/yoelvis/bin/g03/l914.exe)
 RHF ground state
 MDV=2621440000 DFT=T DoStab=F Mixed=T DoRPA=T DoScal=F NonHer=T
 R1, R2, and R3 integrals will be kept in memory, NReq=     2143793.
 Symmetry not used in FoFDir.
 MinBra= 0 MaxBra= 1 Meth= 1.
 IRaf=       0 NMat=   1 IRICut=       1 DoRegI=T DoRafI=F ISym2E= 0 JSym2E=0.
 Making orbital integer symmetry assigments:
    24 initial guesses have been made.
 Convergence on wavefunction:    0.001000000000000
 Davidson Disk Diagonalization:  ConvIn= 1.00D-03 SkipCon=T Conv= 1.00D-03.
 Max sub-space:   200 roots to seek:    24 dimension of matrix:    648
 Iteration     1 Dimension    24 NMult    24
 CISAX:  IP=  4 NPass=   1 NMax=  24.
 CISAX will form  24 AO SS matrices at one time.
 NMat= 24 NSing= 24.
 CISAX:  IP=  4 NPass=   1 NMax=  24.
 CISAX will form  24 AO SS matrices at one time.
 NMat= 24 NSing= 24.
 New state      1 was old state      2
 New state      2 was old state      1
 New state      3 was old state      5
 New state      4 was old state      6
 New state      5 was old state      6
 Excitation Energies [eV] at current iteration:
 Root      1 :     6.327655300448409
 Root      2 :     8.660684923228493
 Root      3 :     8.963648634650331
 Root      4 :     9.077448138056452
 Root      5 :     9.100362972423190
 Root      6 :     9.146026323377932
 Iteration     2 Dimension    36 NMult    36
 CISAX:  IP=  1 NPass=   1 NMax=  12.
 CISAX will form  12 AO SS matrices at one time.
 NMat= 12 NSing= 12.
 CISAX:  IP=  1 NPass=   1 NMax=  12.
 CISAX will form  12 AO SS matrices at one time.
 NMat= 12 NSing= 12.
 Root      1 not converged, maximum delta is    0.007692069284149
 Root      2 not converged, maximum delta is    0.086195107627351
 Root      3 not converged, maximum delta is    0.031300885975603
 Root      4 not converged, maximum delta is    0.096313918225693
 Root      5 not converged, maximum delta is    0.071639632899804
 Root      6 not converged, maximum delta is    0.066715267824335
 Excitation Energies [eV] at current iteration:
 Root      1 :     6.312899693248974   Change is   -0.014755607199434
 Root      2 :     7.584941393797310   Change is   -1.075743529431182
 Root      3 :     8.907002438380601   Change is   -0.056646196269729
 Root      4 :     9.034497296744760   Change is   -0.042950841311692
 Root      5 :     9.057378335120205   Change is   -0.042984637302984
 Root      6 :     9.110463556614034   Change is   -0.035562766763896
 Iteration     3 Dimension    48 NMult    48
 CISAX:  IP=  1 NPass=   1 NMax=  12.
 CISAX will form  12 AO SS matrices at one time.
 NMat= 12 NSing= 12.
 CISAX:  IP=  1 NPass=   1 NMax=  12.
 CISAX will form  12 AO SS matrices at one time.
 NMat= 12 NSing= 12.
 Root      1 has converged.
 Root      2 not converged, maximum delta is    0.007598308658583
 No map to state      3
 New state      4 was old state      3
 Root      4 not converged, maximum delta is    0.601384013948976
 New state      5 was old state      4
 Root      5 not converged, maximum delta is    0.515790522099011
 New state      6 was old state      4
 Root      6 not converged, maximum delta is    0.420631792726431
 Excitation Energies [eV] at current iteration:
 Root      1 :     6.312793934671504   Change is   -0.000105758577471
 Root      2 :     7.571699855909399   Change is   -0.013241537887911
 Root      3 :     8.843595059594028
 Root      4 :     8.906856013028168   Change is   -0.000146425352434
 Root      5 :     8.983951277155365   Change is   -0.050546019589395
 Root      6 :     9.040506129224070   Change is    0.006008832479311
 Iteration     4 Dimension    58 NMult    58
 CISAX:  IP=  1 NPass=   1 NMax=  10.
 CISAX will form  10 AO SS matrices at one time.
 NMat= 10 NSing= 10.
 CISAX:  IP=  1 NPass=   1 NMax=  10.
 CISAX will form  10 AO SS matrices at one time.
 NMat= 10 NSing= 10.
 Root      1 has converged.
 Root      2 not converged, maximum delta is    0.001156215276038
 New state      3 was old state      5
 Root      3 not converged, maximum delta is    0.237403914111308
 New state      4 was old state      3
 Root      4 not converged, maximum delta is    0.241616647386481
 New state      5 was old state      4
 Root      5 not converged, maximum delta is    0.023483423063517
 Root      6 not converged, maximum delta is    0.112217682545216
 Excitation Energies [eV] at current iteration:
 Root      1 :     6.312793428600577   Change is   -0.000000506070926
 Root      2 :     7.571451931312620   Change is   -0.000247924596780
 Root      3 :     8.681272280248015   Change is   -0.302678996907349
 Root      4 :     8.702328109066640   Change is   -0.141266950527389
 Root      5 :     8.906745636742897   Change is   -0.000110376285270
 Root      6 :     9.034603161961121   Change is   -0.005902967262950
 Iteration     5 Dimension    68 NMult    68
 CISAX:  IP=  1 NPass=   1 NMax=  10.
 CISAX will form  10 AO SS matrices at one time.
 NMat= 10 NSing= 10.
 CISAX:  IP=  1 NPass=   1 NMax=  10.
 CISAX will form  10 AO SS matrices at one time.
 NMat= 10 NSing= 10.
 Root      1 has converged.
 Root      2 has converged.
 Root      3 not converged, maximum delta is    0.033176982340966
 Root      4 not converged, maximum delta is    0.024184526157186
 Root      5 has converged.
 Root      6 has converged.
 Excitation Energies [eV] at current iteration:
 Root      1 :     6.312793298965332   Change is   -0.000000129635245
 Root      2 :     7.571442649843616   Change is   -0.000009281469003
 Root      3 :     8.672129730312676   Change is   -0.009142549935338
 Root      4 :     8.698898516994946   Change is   -0.003429592071693
 Root      5 :     8.906743285687472   Change is   -0.000002351055425
 Root      6 :     9.034572647778685   Change is   -0.000030514182436
 Iteration     6 Dimension    72 NMult    72
 CISAX:  IP=  1 NPass=   1 NMax=   4.
 CISAX will form   4 AO SS matrices at one time.
 NMat=  4 NSing=  4.
 CISAX:  IP=  1 NPass=   1 NMax=   4.
 CISAX will form   4 AO SS matrices at one time.
 NMat=  4 NSing=  4.
 Root      1 has converged.
 Root      2 has converged.
 Root      3 has converged.
 Root      4 has converged.
 Root      5 has converged.
 Root      6 has converged.
 Excitation Energies [eV] at current iteration:
 Root      1 :     6.312793236946074   Change is   -0.000000062019258
 Root      2 :     7.571442595340893   Change is   -0.000000054502724
 Root      3 :     8.671911932656736   Change is   -0.000217797655942
 Root      4 :     8.698805303243494   Change is   -0.000093213751452
 Root      5 :     8.906743225752802   Change is   -0.000000059934671
 Root      6 :     9.034571994823382   Change is   -0.000000652955301
 Convergence achieved on expansion vectors.
 ***********************************************************************
 Excited states from <AA,BB:AA,BB> singles matrix:
 ***********************************************************************
 
 1PDM for each excited state written to RWF  633
 Ground to excited state Transition electric dipole moments (Au):
       state          X           Y           Z          Osc.
         1        -0.0092     -0.0411      0.0002      0.0003
         2        -0.4219     -0.0263     -0.0164      0.0332
         3         1.7900      0.5042      0.0097      0.7347
         4         0.6298     -1.5453      0.0042      0.5934
         5        -0.0133      0.0003      0.0170      0.0001
         6        -0.0477     -0.0008     -0.0119      0.0005
 Ground to excited state transition velocity dipole Moments (Au):
       state          X           Y           Z          Osc.
         1         0.0019      0.0054      0.0000      0.0001
         2         0.0779      0.0038      0.0043      0.0146
         3        -0.3662     -0.0994     -0.0035      0.3013
         4        -0.1268      0.3098     -0.0015      0.2336
         5         0.0030     -0.0006     -0.0037      0.0000
         6         0.0117      0.0001      0.0079      0.0004
 Ground to excited state transition magnetic dipole Moments (Au):
       state          X           Y           Z
         1        -0.0012      0.0002     -0.0449
         2        -0.0004     -0.0158     -0.0580
         3         0.0040      0.0091      0.1713
         4        -0.0097      0.0050     -0.4012
         5         0.1013      0.0021     -0.0105
         6        -0.0012     -0.1331      0.0001
 <0|del|b> * <b|rxdel|0>  (Au), Rotatory Strengths (R) in
 cgs (10**-40 erg-esu-cm/Gauss)
       state          X           Y           Z     R(velocity)
         1         0.0000      0.0000      0.0000      0.0013
         2         0.0000     -0.0001     -0.0002     -0.2859
         3        -0.0015     -0.0009     -0.0006     -2.1914
         4         0.0012      0.0015      0.0006      2.4871
         5         0.0003      0.0000      0.0000      0.2428
         6         0.0000      0.0000      0.0000     -0.0215
 <0|r|b> * <b|rxdel|0>  (Au), Rotatory Strengths (R) in
 cgs (10**-40 erg-esu-cm/Gauss)
       state          X           Y           Z     R(length)
         1         0.0000      0.0000      0.0000      0.0019
         2         0.0002      0.0004      0.0009     -0.3581
         3         0.0071      0.0046      0.0017     -3.1499
         4        -0.0061     -0.0077     -0.0017      3.6539
         5        -0.0014      0.0000     -0.0002      0.3604
         6         0.0001      0.0001      0.0000     -0.0370
  <0|del|b> * <b|r|0>  (Au)
       state          X           Y           Z       Osc.(frdel)
         1         0.0000     -0.0002      0.0000      0.0002
         2        -0.0329     -0.0001     -0.0001      0.0220
         3        -0.6555     -0.0501      0.0000      0.4705
         4        -0.0798     -0.4786      0.0000      0.3723
         5         0.0000      0.0000     -0.0001      0.0001
         6        -0.0006      0.0000     -0.0001      0.0004
 Ground to excited state transition densities written to RWF  633

 Excitation energies and oscillator strengths:
 
 Excited state symmetry could not be determined.
 Excited State   1:   Singlet-?Sym    6.3128 eV  196.40 nm  f=0.0003
      24 -> 26        -0.48125
      24 -> 27         0.14066
      25 -> 26         0.15031
      25 -> 27         0.49594
 This state for optimization and/or second-order correction.
 Total Energy, E(RPA) =  -268.027519883    
 Copying the excited state density for this state as the 1-particle RhoCI density.
 
 Excited state symmetry could not be determined.
 Excited State   2:   Singlet-?Sym    7.5714 eV  163.75 nm  f=0.0332
      24 -> 26         0.11684
      24 -> 27         0.37117
      25 -> 26         0.49462
      25 -> 27        -0.14253
 
 Excited state symmetry could not be determined.
 Excited State   3:   Singlet-?Sym    8.6719 eV  142.97 nm  f=0.7347
      24 -> 27         0.47450
      25 -> 26        -0.34346
 
 Excited state symmetry could not be determined.
 Excited State   4:   Singlet-?Sym    8.6988 eV  142.53 nm  f=0.5934
      24 -> 26         0.42627
      25 -> 27         0.40064
 
 Excited state symmetry could not be determined.
 Excited State   5:   Singlet-?Sym    8.9067 eV  139.20 nm  f=0.0001
      22 -> 26        -0.18530
      22 -> 27        -0.21794
      23 -> 26         0.61791
      23 -> 27        -0.17496
 
 Excited state symmetry could not be determined.
 Excited State   6:   Singlet-?Sym    9.0346 eV  137.23 nm  f=0.0005
      22 -> 26        -0.33698
      22 -> 27         0.10917
      23 -> 26         0.10554
      23 -> 27         0.59532
 Leave Link  914 at Fri May 29 11:48:19 2020, MaxMem= 2621440000 cpu:      41.1
 (Enter /home/yoelvis/bin/g03/l601.exe)
 Copying SCF densities to generalized density rwf, ISCF=0 IROHF=0.

 **********************************************************************

            Population analysis using the SCF density.

 **********************************************************************

 Alpha  occ. eigenvalues --  -10.02795 -10.02620 -10.01464 -10.01447 -10.01320
 Alpha  occ. eigenvalues --  -10.01168 -10.01148  -0.82033  -0.73989  -0.71012
 Alpha  occ. eigenvalues --   -0.65735  -0.57307  -0.55313  -0.48229  -0.42755
 Alpha  occ. eigenvalues --   -0.42405  -0.39752  -0.38687  -0.37582  -0.35869
 Alpha  occ. eigenvalues --   -0.31611  -0.30546  -0.30337  -0.20463  -0.19742
 Alpha virt. eigenvalues --    0.08006   0.08218   0.24181   0.33491   0.37105
 Alpha virt. eigenvalues --    0.38749   0.42428   0.44410   0.44848   0.45919
 Alpha virt. eigenvalues --    0.47338   0.47696   0.57825   0.58583   0.59859
 Alpha virt. eigenvalues --    0.60951   0.75524   0.80223
          Condensed to atoms (all electrons):
              1          2          3          4          5          6
     1  C    4.772440   0.383004  -0.027703   0.000854   0.000017   0.000869
     2  C    0.383004   4.787910   0.500461  -0.027853  -0.011303  -0.027890
     3  C   -0.027703   0.500461   4.815809   0.507208  -0.029665  -0.012214
     4  C    0.000854  -0.027853   0.507208   4.799706   0.503008  -0.030458
     5  C    0.000017  -0.011303  -0.029665   0.503008   4.802043   0.505225
     6  C    0.000869  -0.027890  -0.012214  -0.030458   0.505225   4.800158
     7  C   -0.027874   0.503461  -0.032188  -0.012265  -0.029631   0.504636
     8  H    0.378328  -0.020021  -0.003159   0.000017   0.000002  -0.000021
     9  H    0.381020  -0.019928   0.001298  -0.000022   0.000000   0.000039
    10  H   -0.003507  -0.026216   0.390559  -0.025799   0.001470   0.000045
    11  H   -0.000016   0.001416  -0.025623   0.391587  -0.025443   0.001483
    12  H    0.000001   0.000034   0.001449  -0.025273   0.391893  -0.025308
    13  H   -0.000016   0.001411   0.000036   0.001487  -0.025448   0.391581
    14  H   -0.003899  -0.026289   0.001487   0.000046   0.001465  -0.025771
    15  H    0.376125  -0.019849  -0.001577  -0.000004   0.000003  -0.000019
              7          8          9         10         11         12
     1  C   -0.027874   0.378328   0.381020  -0.003507  -0.000016   0.000001
     2  C    0.503461  -0.020021  -0.019928  -0.026216   0.001416   0.000034
     3  C   -0.032188  -0.003159   0.001298   0.390559  -0.025623   0.001449
     4  C   -0.012265   0.000017  -0.000022  -0.025799   0.391587  -0.025273
     5  C   -0.029631   0.000002   0.000000   0.001470  -0.025443   0.391893
     6  C    0.504636  -0.000021   0.000039   0.000045   0.001483  -0.025308
     7  C    4.814750   0.000971  -0.004577   0.001491   0.000036   0.001453
     8  H    0.000971   0.603622  -0.020677   0.000393  -0.000001   0.000000
     9  H   -0.004577  -0.020677   0.601353   0.000026   0.000000   0.000000
    10  H    0.001491   0.000393   0.000026   0.588189  -0.003928  -0.000035
    11  H    0.000036  -0.000001   0.000000  -0.003928   0.583073  -0.003680
    12  H    0.001453   0.000000   0.000000  -0.000035  -0.003680   0.581771
    13  H   -0.025554   0.000000  -0.000002   0.000002  -0.000036  -0.003707
    14  H    0.390691   0.000039   0.000785  -0.000038   0.000002  -0.000035
    15  H    0.000218  -0.020767  -0.020532   0.000164   0.000000   0.000000
             13         14         15
     1  C   -0.000016  -0.003899   0.376125
     2  C    0.001411  -0.026289  -0.019849
     3  C    0.000036   0.001487  -0.001577
     4  C    0.001487   0.000046  -0.000004
     5  C   -0.025448   0.001465   0.000003
     6  C    0.391581  -0.025771  -0.000019
     7  C   -0.025554   0.390691   0.000218
     8  H    0.000000   0.000039  -0.020767
     9  H   -0.000002   0.000785  -0.020532
    10  H    0.000002  -0.000038   0.000164
    11  H   -0.000036   0.000002   0.000000
    12  H   -0.003707  -0.000035   0.000000
    13  H    0.582921  -0.003893   0.000000
    14  H   -0.003893   0.588252   0.000064
    15  H    0.000000   0.000064   0.598707
 Mulliken atomic charges:
              1
     1  C   -0.229642
     2  C    0.001650
     3  C   -0.086176
     4  C   -0.082238
     5  C   -0.083637
     6  C   -0.082355
     7  C   -0.085618
     8  H    0.081274
     9  H    0.081216
    10  H    0.077183
    11  H    0.081129
    12  H    0.081437
    13  H    0.081217
    14  H    0.077093
    15  H    0.087466
 Sum of Mulliken charges=   0.00000
 Atomic charges with hydrogens summed into heavy atoms:
              1
     1  C    0.020315
     2  C    0.001650
     3  C   -0.008993
     4  C   -0.001110
     5  C   -0.002200
     6  C   -0.001137
     7  C   -0.008525
     8  H    0.000000
     9  H    0.000000
    10  H    0.000000
    11  H    0.000000
    12  H    0.000000
    13  H    0.000000
    14  H    0.000000
    15  H    0.000000
 Sum of Mulliken charges=   0.00000
 Electronic spatial extent (au):  <R**2>=   715.3305
 Charge=     0.0000 electrons
 Dipole moment (field-independent basis, Debye):
    X=     0.2802    Y=    -0.0199    Z=     0.0658  Tot=     0.2885
 Quadrupole moment (field-independent basis, Debye-Ang):
   XX=   -36.0123   YY=   -36.6040   ZZ=   -41.0867
   XY=    -0.0598   XZ=     0.0954   YZ=    -0.0066
 Traceless Quadrupole moment (field-independent basis, Debye-Ang):
   XX=     1.8887   YY=     1.2970   ZZ=    -3.1857
   XY=    -0.0598   XZ=     0.0954   YZ=    -0.0066
 Octapole moment (field-independent basis, Debye-Ang**2):
  XXX=    -2.3123  YYY=     0.3931  ZZZ=     0.4245  XYY=    -0.4384
  XXY=    -0.1560  XXZ=     0.3362  XZZ=     2.1972  YZZ=    -0.4191
  YYZ=    -0.3098  XYZ=    -0.0165
 Hexadecapole moment (field-independent basis, Debye-Ang**3):
 XXXX=  -566.1444 YYYY=  -265.6967 ZZZZ=   -40.0057 XXXY=    -0.4101
 XXXZ=     0.6490 YYYX=     1.1425 YYYZ=     0.0061 ZZZX=     1.2039
 ZZZY=    -0.0331 XXYY=  -136.0312 XXZZ=  -106.0710 YYZZ=   -57.4803
 XXYZ=    -0.0356 YYXZ=    -1.0030 ZZXY=    -1.2514
 N-N= 2.690206467617D+02 E-N=-1.157879387179D+03  KE= 2.638099598735D+02
 Leave Link  601 at Fri May 29 11:48:24 2020, MaxMem= 2621440000 cpu:       0.0
 (Enter /home/yoelvis/bin/g03/l9999.exe)

 Test job not archived.
 1\1\GINC-COMET-25-47\SP\RTD-B3LYP-FC\STO-3G\C7H8\YOELVIS\29-May-2020\0
 \\#P b3lyp/STO-3G TD(NStates=6) SCFcyc=500 charge NoSymm\\Gaussian tem
 plate charges\\0,1\C,0,2.42828,0.001838,0.006083\C,0,0.915603,0.00443,
 -0.007524\C,0,0.197635,-1.20203,-0.005671\C,0,-1.19886,-1.208798,0.001
 33\C,0,-1.907868,-0.003065,0.005385\C,0,-1.206495,1.204683,0.001466\C,
 0,0.192215,1.204974,-0.005849\H,0,2.834884,-0.701703,-0.730361\H,0,2.8
 31835,0.994935,-0.21845\H,0,0.739711,-2.146071,-0.011235\H,0,-1.734149
 ,-2.155365,0.001091\H,0,-2.994936,-0.006384,0.0089\H,0,-1.746013,2.148
 821,0.001421\H,0,0.729092,2.151598,-0.01142\H,0,2.816521,-0.29802,0.98
 8731\\Version=AM64L-G03RevD.01\HF=-268.2595108\RMSD=2.883e-09\Thermal=
 0.\PG=C01 [X(C7H8)]\\@


 WOE UNTO THEM THAT CALL EVIL GOOD, AND GOOD EVIL      
 Job cpu time:  0 days  0 hours  1 minutes 55.8 seconds.
 File lengths (MBytes):  RWF=     27 Int=      0 D2E=      0 Chk=     10 Scr=      1
 Normal termination of Gaussian 03 at Fri May 29 11:48:29 2020.
