 Entering Gaussian System, Link 0=g03
 Input=pCA_batch_1.com
 Output=pCA_batch_1.log
 Initial command:
 /home/yoelvis/bin/g03/l1.exe /scratch/yoelvis/33721162/scr/Gau-18520.inp -scrdir=/scratch/yoelvis/33721162/scr/
 Entering Link 1 = /home/yoelvis/bin/g03/l1.exe PID=     18521.
  
 Copyright (c) 1988,1990,1992,1993,1995,1998,2003,2004, Gaussian, Inc.
                  All Rights Reserved.
  
 This is the Gaussian(R) 03 program.  It is based on the
 the Gaussian(R) 98 system (copyright 1998, Gaussian, Inc.),
 the Gaussian(R) 94 system (copyright 1995, Gaussian, Inc.),
 the Gaussian 92(TM) system (copyright 1992, Gaussian, Inc.),
 the Gaussian 90(TM) system (copyright 1990, Gaussian, Inc.),
 the Gaussian 88(TM) system (copyright 1988, Gaussian, Inc.),
 the Gaussian 86(TM) system (copyright 1986, Carnegie Mellon
 University), and the Gaussian 82(TM) system (copyright 1983,
 Carnegie Mellon University). Gaussian is a federally registered
 trademark of Gaussian, Inc.
  
 This software contains proprietary and confidential information,
 including trade secrets, belonging to Gaussian, Inc.
  
 This software is provided under written license and may be
 used, copied, transmitted, or stored only in accord with that
 written license.
  
 The following legend is applicable only to US Government
 contracts under FAR:
  
                    RESTRICTED RIGHTS LEGEND
  
 Use, reproduction and disclosure by the US Government is
 subject to restrictions as set forth in subparagraphs (a)
 and (c) of the Commercial Computer Software - Restricted
 Rights clause in FAR 52.227-19.
  
 Gaussian, Inc.
 340 Quinnipiac St., Bldg. 40, Wallingford CT 06492
  
  
 ---------------------------------------------------------------
 Warning -- This program may not be used in any manner that
 competes with the business of Gaussian, Inc. or will provide
 assistance to any competitor of Gaussian, Inc.  The licensee
 of this program is prohibited from giving any competitor of
 Gaussian, Inc. access to this program.  By using this program,
 the user acknowledges that Gaussian, Inc. is engaged in the
 business of creating and licensing software in the field of
 computational chemistry and represents and warrants to the
 licensee that it is not a competitor of Gaussian, Inc. and that
 it will not use this program in any manner prohibited above.
 ---------------------------------------------------------------
  

 Cite this work as:
 Gaussian 03, Revision D.01,
 M. J. Frisch, G. W. Trucks, H. B. Schlegel, G. E. Scuseria, 
 M. A. Robb, J. R. Cheeseman, J. A. Montgomery, Jr., T. Vreven, 
 K. N. Kudin, J. C. Burant, J. M. Millam, S. S. Iyengar, J. Tomasi, 
 V. Barone, B. Mennucci, M. Cossi, G. Scalmani, N. Rega, 
 G. A. Petersson, H. Nakatsuji, M. Hada, M. Ehara, K. Toyota, 
 R. Fukuda, J. Hasegawa, M. Ishida, T. Nakajima, Y. Honda, O. Kitao, 
 H. Nakai, M. Klene, X. Li, J. E. Knox, H. P. Hratchian, J. B. Cross, 
 V. Bakken, C. Adamo, J. Jaramillo, R. Gomperts, R. E. Stratmann, 
 O. Yazyev, A. J. Austin, R. Cammi, C. Pomelli, J. W. Ochterski, 
 P. Y. Ayala, K. Morokuma, G. A. Voth, P. Salvador, J. J. Dannenberg, 
 V. G. Zakrzewski, S. Dapprich, A. D. Daniels, M. C. Strain, 
 O. Farkas, D. K. Malick, A. D. Rabuck, K. Raghavachari, 
 J. B. Foresman, J. V. Ortiz, Q. Cui, A. G. Baboul, S. Clifford, 
 J. Cioslowski, B. B. Stefanov, G. Liu, A. Liashenko, P. Piskorz, 
 I. Komaromi, R. L. Martin, D. J. Fox, T. Keith, M. A. Al-Laham, 
 C. Y. Peng, A. Nanayakkara, M. Challacombe, P. M. W. Gill, 
 B. Johnson, W. Chen, M. W. Wong, C. Gonzalez, and J. A. Pople, 
 Gaussian, Inc., Wallingford CT, 2004.
 
 ******************************************
 Gaussian 03:  AM64L-G03RevD.01 13-Oct-2005
                29-May-2020 
 ******************************************
 %nproc=4
 Will use up to    4 processors via shared memory.
 %mem=20000MB
 ------------------------------------------------------
 #P b3lyp/STO-3G TD(NStates=6) SCFcyc=500 charge NoSymm
 ------------------------------------------------------
 1/18=10,28=-2,38=1/1;
 2/15=1,17=6,18=5,40=1/2;
 3/6=3,11=2,16=1,25=1,30=1,43=1,74=-5/1,2,8,3,7;
 4//1;
 5/5=2,7=500,38=5/2;
 8/6=1,10=1/1;
 9/41=6,42=1/14;
 6/7=2,8=2,9=2,10=2/1;
 99/5=1,9=1/99;
 Leave Link    1 at Fri May 29 11:45:52 2020, MaxMem= 2621440000 cpu:       0.2
 (Enter /home/yoelvis/bin/g03/l101.exe)
 -------------------------
 Gaussian template charges
 -------------------------
 Symbolic Z-matrix:
 Charge =  0 Multiplicity = 1
 C                    -4.02996  -0.22297  -0.63788 
 C                    -3.13689   0.87023  -0.28463 
 C                    -1.78177   0.68763  -0.15103 
 C                    -1.14985  -0.58023  -0.34722 
 C                    -2.0123   -1.66784  -0.69573 
 C                    -3.36807  -1.50892  -0.83434 
 O                    -5.27456  -0.07701  -0.76522 
 C                     0.25617  -0.69786  -0.19265 
 C                     1.06449  -1.8111   -0.332 
 C                     2.482    -1.73398  -0.13443 
 O                     3.16689  -0.75758   0.16915 
 S                     3.32037  -3.3737   -0.39414 
 C                     5.03844  -2.8797   -0.0336 
 H                    -3.5901    1.84733  -0.12911 
 H                    -1.14917   1.53594   0.11544 
 H                    -1.57629  -2.65306  -0.85546 
 H                    -4.00533  -2.35042  -1.09998 
 H                     0.77876   0.22188   0.07517 
 H                     0.65213  -2.78144  -0.59618 
 H                     5.67136  -3.74859  -0.23894 
 H                     5.14833  -2.58236   1.0126 
 H                     5.33635  -2.04328  -0.67042 
 
                    Isotopes and Nuclear Properties:
 (Nuclear quadrupole moments (NQMom) in fm**2, nuclear magnetic moments (NMagM)
  in nuclear magnetons)

  Atom         1           2           3           4           5           6           7           8           9          10
 IAtWgt=          12          12          12          12          12          12          16          12          12          12
 AtmWgt=  12.0000000  12.0000000  12.0000000  12.0000000  12.0000000  12.0000000  15.9949146  12.0000000  12.0000000  12.0000000
 NucSpn=           0           0           0           0           0           0           0           0           0           0
 AtZEff=   0.0000000   0.0000000   0.0000000   0.0000000   0.0000000   0.0000000   0.0000000   0.0000000   0.0000000   0.0000000
 NQMom=    0.0000000   0.0000000   0.0000000   0.0000000   0.0000000   0.0000000   0.0000000   0.0000000   0.0000000   0.0000000
 NMagM=    0.0000000   0.0000000   0.0000000   0.0000000   0.0000000   0.0000000   0.0000000   0.0000000   0.0000000   0.0000000

  Atom        11          12          13          14          15          16          17          18          19          20
 IAtWgt=          16          32          12           1           1           1           1           1           1           1
 AtmWgt=  15.9949146  31.9720718  12.0000000   1.0078250   1.0078250   1.0078250   1.0078250   1.0078250   1.0078250   1.0078250
 NucSpn=           0           0           0           1           1           1           1           1           1           1
 AtZEff=   0.0000000   0.0000000   0.0000000   0.0000000   0.0000000   0.0000000   0.0000000   0.0000000   0.0000000   0.0000000
 NQMom=    0.0000000   0.0000000   0.0000000   0.0000000   0.0000000   0.0000000   0.0000000   0.0000000   0.0000000   0.0000000
 NMagM=    0.0000000   0.0000000   0.0000000   2.7928460   2.7928460   2.7928460   2.7928460   2.7928460   2.7928460   2.7928460

  Atom        21          22
 IAtWgt=           1           1
 AtmWgt=   1.0078250   1.0078250
 NucSpn=           1           1
 AtZEff=   0.0000000   0.0000000
 NQMom=    0.0000000   0.0000000
 NMagM=    2.7928460   2.7928460
 Leave Link  101 at Fri May 29 11:46:02 2020, MaxMem= 2621440000 cpu:       0.1
 (Enter /home/yoelvis/bin/g03/l202.exe)
                          Input orientation:                          
 ---------------------------------------------------------------------
 Center     Atomic     Atomic              Coordinates (Angstroms)
 Number     Number      Type              X           Y           Z
 ---------------------------------------------------------------------
    1          6             0       -4.029961   -0.222968   -0.637878
    2          6             0       -3.136886    0.870231   -0.284632
    3          6             0       -1.781769    0.687625   -0.151032
    4          6             0       -1.149846   -0.580228   -0.347221
    5          6             0       -2.012296   -1.667837   -0.695728
    6          6             0       -3.368069   -1.508924   -0.834342
    7          8             0       -5.274563   -0.077005   -0.765218
    8          6             0        0.256165   -0.697863   -0.192646
    9          6             0        1.064485   -1.811102   -0.331996
   10          6             0        2.481996   -1.733977   -0.134428
   11          8             0        3.166892   -0.757580    0.169148
   12         16             0        3.320367   -3.373700   -0.394144
   13          6             0        5.038440   -2.879696   -0.033601
   14          1             0       -3.590100    1.847333   -0.129109
   15          1             0       -1.149168    1.535935    0.115442
   16          1             0       -1.576287   -2.653064   -0.855455
   17          1             0       -4.005328   -2.350419   -1.099982
   18          1             0        0.778758    0.221881    0.075172
   19          1             0        0.652125   -2.781444   -0.596175
   20          1             0        5.671359   -3.748593   -0.238940
   21          1             0        5.148331   -2.582362    1.012602
   22          1             0        5.336346   -2.043284   -0.670418
 ---------------------------------------------------------------------
                    Distance matrix (angstroms):
                    1          2          3          4          5
     1  C    0.000000
     2  C    1.455146   0.000000
     3  C    2.473978   1.373876   0.000000
     4  C    2.916707   2.460910   1.430129   0.000000
     5  C    2.482331   2.806331   2.428588   1.431143   0.000000
     6  C    1.459583   2.452755   2.794296   2.453625   1.372074
     7  O    1.259585   2.387024   3.627877   4.176272   3.630146
     8  C    4.335278   3.739007   2.464647   1.419365   2.517907
     9  C    5.345008   4.984306   3.791774   2.533485   3.101517
    10  C    6.703894   6.194860   4.903481   3.816634   4.529690
    11  O    7.261666   6.526354   5.165305   4.351128   5.329218
    12  S    8.000865   7.727811   6.525738   5.271479   5.606979
    13  C    9.468857   8.997829   7.697715   6.609145   7.184699
    14  H    2.176803   1.088264   2.148363   3.448980   3.894476
    15  H    3.458352   2.134067   1.091248   2.166149   3.415720
    16  H    3.460234   3.895499   3.420327   2.176420   1.089169
    17  H    2.177199   3.433886   3.882581   3.442964   2.145114
    18  H    4.881609   3.985233   2.612352   2.131035   3.457644
    19  H    5.335679   5.271470   4.261036   2.855596   2.889493
    20  H   10.329801   9.945894   8.673919   7.521908   7.973503
    21  H    9.619349   9.069070   7.750687   6.747199   7.418175
    22  H    9.541610   8.968448   7.641674   6.657002   7.358270
                    6          7          8          9         10
     6  C    0.000000
     7  O    2.385349   0.000000
     8  C    3.768908   5.594842   0.000000
     9  C    4.471152   6.586221   1.382787   0.000000
    10  C    5.896083   7.956611   2.455859   1.433290   0.000000
    11  O    6.654113   8.520234   2.933734   2.404406   1.230688
    12  S    6.957466   9.212965   4.073087   2.744919   1.859841
    13  C    8.555092  10.712067   5.258882   4.125924   2.803256
    14  H    3.436730   2.635361   4.612571   5.923721   7.049550
    15  H    3.885457   4.516195   2.657016   4.037712   4.892863
    16  H    2.126026   4.507934   2.760436   2.820742   4.223063
    17  H    1.088475   2.625154   4.659884   5.155935   6.587691
    18  H    4.584657   6.118683   1.091219   2.092951   2.601986
    19  H    4.223505   6.516763   2.158919   1.086920   2.158431
    20  H    9.331767  11.557281   6.215579   4.998582   3.773809
    21  H    8.780236  10.866194   5.379335   4.368133   3.024033
    22  H    8.722342  10.791971   5.276994   4.291531   2.920663
                   11         12         13         14         15
    11  O    0.000000
    12  S    2.680473   0.000000
    13  C    2.836754   1.823679   0.000000
    14  H    7.247860   8.665101   9.838985   0.000000
    15  H    4.887890   6.658899   7.603059   2.472837   0.000000
    16  H    5.209647   4.970849   6.669439   4.983633   4.321202
    17  H    7.455774   7.430418   9.121789   4.328525   4.973797
    18  H    2.582897   4.428119   5.270342   4.665913   2.333508
    19  H    3.317499   2.740638   4.423336   6.296046   4.731894
    20  H    3.922378   2.385749   1.094410  10.821325   8.635474
    21  H    2.822648   2.438566   1.093172   9.863360   7.577847
    22  H    2.657901   2.431153   1.092643   9.752505   7.449180
                   16         17         18         19         20
    16  H    0.000000
    17  H    2.460006   0.000000
    18  H    3.831137   5.557445   0.000000
    19  H    2.247115   4.704410   3.080049   0.000000
    20  H    7.355858   9.815017   6.308793   5.124032   0.000000
    21  H    6.979622   9.397142   5.275957   4.779505   1.788857
    22  H    6.941942   9.356588   5.143781   4.742607   1.790666
                   21         22
    21  H    0.000000
    22  H    1.777220   0.000000
 Symmetry turned off by external request.
 Stoichiometry    C10H9O2S
 Framework group  C1[X(C10H9O2S)]
 Deg. of freedom    60
 Full point group                 C1
 Rotational constants (GHZ):      2.8536210      0.2263268      0.2099744
 Leave Link  202 at Fri May 29 11:46:14 2020, MaxMem= 2621440000 cpu:       0.2
 (Enter /home/yoelvis/bin/g03/l301.exe)
 Standard basis: STO-3G (5D, 7F)
 The combination of multiplicity 1 and   101 electrons is impossible.
 Error termination via Lnk1e in /home/yoelvis/bin/g03/l301.exe at Fri May 29 11:46:25 2020.
 Job cpu time:  0 days  0 hours  0 minutes 33.4 seconds.
 File lengths (MBytes):  RWF=     14 Int=      0 D2E=      0 Chk=      1 Scr=      1
